 Entering Gaussian System, Link 0=/public4/home/pgv3801/softwares/g16/g16
 Input=e6_07_irc2.gjf
 Output=e6_07_irc2.log
 Initial command:
 /public4/home/pgv3801/softwares/g16/l1.exe "/public4/home/pgv3801/softwares/tmp/Gau-59825.inp" -scrdir="/public4/home/pgv3801/softwares/tmp/"
 Entering Link 1 = /public4/home/pgv3801/softwares/g16/l1.exe PID=     59863.
  
 Copyright (c) 1988-2019, Gaussian, Inc.  All Rights Reserved.
  
 This is part of the Gaussian(R) 16 program.  It is based on
 the Gaussian(R) 09 system (copyright 2009, Gaussian, Inc.),
 the Gaussian(R) 03 system (copyright 2003, Gaussian, Inc.),
 the Gaussian(R) 98 system (copyright 1998, Gaussian, Inc.),
 the Gaussian(R) 94 system (copyright 1995, Gaussian, Inc.),
 the Gaussian 92(TM) system (copyright 1992, Gaussian, Inc.),
 the Gaussian 90(TM) system (copyright 1990, Gaussian, Inc.),
 the Gaussian 88(TM) system (copyright 1988, Gaussian, Inc.),
 the Gaussian 86(TM) system (copyright 1986, Carnegie Mellon
 University), and the Gaussian 82(TM) system (copyright 1983,
 Carnegie Mellon University). Gaussian is a federally registered
 trademark of Gaussian, Inc.
  
 This software contains proprietary and confidential information,
 including trade secrets, belonging to Gaussian, Inc.
  
 This software is provided under written license and may be
 used, copied, transmitted, or stored only in accord with that
 written license.
  
 The following legend is applicable only to US Government
 contracts under FAR:
  
                    RESTRICTED RIGHTS LEGEND
  
 Use, reproduction and disclosure by the US Government is
 subject to restrictions as set forth in subparagraphs (a)
 and (c) of the Commercial Computer Software - Restricted
 Rights clause in FAR 52.227-19.
  
 Gaussian, Inc.
 340 Quinnipiac St., Bldg. 40, Wallingford CT 06492
  
  
 ---------------------------------------------------------------
 Warning -- This program may not be used in any manner that
 competes with the business of Gaussian, Inc. or will provide
 assistance to any competitor of Gaussian, Inc.  The licensee
 of this program is prohibited from giving any competitor of
 Gaussian, Inc. access to this program.  By using this program,
 the user acknowledges that Gaussian, Inc. is engaged in the
 business of creating and licensing software in the field of
 computational chemistry and represents and warrants to the
 licensee that it is not a competitor of Gaussian, Inc. and that
 it will not use this program in any manner prohibited above.
 ---------------------------------------------------------------
  

 Cite this work as:
 Gaussian 16, Revision C.01,
 M. J. Frisch, G. W. Trucks, H. B. Schlegel, G. E. Scuseria, 
 M. A. Robb, J. R. Cheeseman, G. Scalmani, V. Barone, 
 G. A. Petersson, H. Nakatsuji, X. Li, M. Caricato, A. V. Marenich, 
 J. Bloino, B. G. Janesko, R. Gomperts, B. Mennucci, H. P. Hratchian, 
 J. V. Ortiz, A. F. Izmaylov, J. L. Sonnenberg, D. Williams-Young, 
 F. Ding, F. Lipparini, F. Egidi, J. Goings, B. Peng, A. Petrone, 
 T. Henderson, D. Ranasinghe, V. G. Zakrzewski, J. Gao, N. Rega, 
 G. Zheng, W. Liang, M. Hada, M. Ehara, K. Toyota, R. Fukuda, 
 J. Hasegawa, M. Ishida, T. Nakajima, Y. Honda, O. Kitao, H. Nakai, 
 T. Vreven, K. Throssell, J. A. Montgomery, Jr., J. E. Peralta, 
 F. Ogliaro, M. J. Bearpark, J. J. Heyd, E. N. Brothers, K. N. Kudin, 
 V. N. Staroverov, T. A. Keith, R. Kobayashi, J. Normand, 
 K. Raghavachari, A. P. Rendell, J. C. Burant, S. S. Iyengar, 
 J. Tomasi, M. Cossi, J. M. Millam, M. Klene, C. Adamo, R. Cammi, 
 J. W. Ochterski, R. L. Martin, K. Morokuma, O. Farkas, 
 J. B. Foresman, and D. J. Fox, Gaussian, Inc., Wallingford CT, 2019.
 
 ******************************************
 Gaussian 16:  ES64L-G16RevC.01  3-Jul-2019
                30-Sep-2020 
 ******************************************
 %OldChk=e6_07_ts2
 %chk=e6_07_irc2
 Copying data from "e6_07_ts2.chk" to current chk file "e6_07_irc2.chk"
 IOpt=  2 FromEx=T IUOpen= 4 IOptOp= 5 NList=   0 IFRang= 0 IUIn= 4 IUOut= 2.
 ----------------------------------------------------------------------
 # IRC(RCFC,MaxPoints=40,Step=20,Recorrect=Never,Phase=(1,2,4)) APFd 6-
 311+G(2d,p) Int(Ultrafine,Acc2E=12) geom=check guess=read
 ----------------------------------------------------------------------
 1/10=5,18=10,26=4,29=2,38=1,39=20,42=40,44=3,101=1,102=2,103=4,131=1,172=1/1,23;
 2/12=2,29=1,40=1/2;
 3/5=4,6=6,7=112,11=2,14=-4,25=1,27=12,30=1,71=2,74=-44,75=-5,116=-2,140=1/1,2,3;
 4/5=1/1;
 5/5=2,38=6,87=12/2;
 8/6=4,10=90,11=11,87=12/1;
 11/6=1,8=1,9=11,15=111,16=1,87=12/1,2,10;
 10/6=1,13=1,87=12/2;
 6/7=2,8=2,9=2,10=2,28=1,87=12/1;
 7/10=1,25=1,87=12/1,2,3,16;
 1/18=10,26=4,39=20,42=40,44=3,101=1,102=2,103=4,131=1/23(2);
 2/29=1/2;
 99/5=20/99;
 2/29=1/2;
 3/5=4,6=6,7=112,11=2,14=-2,25=1,27=12,30=1,71=2,74=-44,75=-5,140=1/1,2,3;
 4/5=5,16=3,69=1/1;
 5/5=2,38=5,87=12/2;
 8/6=4,10=90,11=11,87=12/1;
 11/6=1,8=1,9=11,15=111,16=1,87=12/1,2,10;
 10/6=1,13=1,87=12/2;
 7/10=1,25=1,87=12/1,2,3,16;
 1/18=10,26=4,39=20,42=40,44=3,101=1,102=2,103=4,131=1/23(-8);
 2/29=1/2;
 6/7=2,8=2,9=2,10=2,19=2,28=1,87=12/1;
 99/5=20,9=1/99;
 -------------------
 CH2O <---> HCOH IRC
 -------------------
 Structure from the checkpoint file:  "e6_07_irc2.chk"
 Charge =  0 Multiplicity = 1
 Redundant internal coordinates found in file.  (old form).
 C,0,0.0408261286,0.4473937772,-0.0567415489
 O,0,-0.2051299804,-0.8092125673,0.1316636446
 H,0,-0.8601739076,1.1024357833,-0.0418949673
 H,0,0.8974788394,-0.4683492632,-0.0330271285
 Recover connectivity data from disk.
 IRC-IRC-IRC-IRC-IRC-IRC-IRC-IRC-IRC-IRC-IRC-IRC-IRC-IRC-IRC-IRC-IRC-IRC
 ------------------------------------------------------------------------
 INPUT DATA FOR L123
 ------------------------------------------------------------------------
 GENERAL PARAMETERS:
 Follow reaction path in both directions.
 Maximum points per path      =  40
 Step size                    =   0.200 bohr
 Integration scheme           = HPC                                 
    Redo corrector integration= Never                               
    DWI Weight Power          =  2
    DWI will use Hessian update vectors when possible.
 Initial Hessian              = ReadFC from chk
 Hessian evaluation           = All updating
 Hessian updating method      = Bofill                              
 ------------------------------------------------------------------------
          ******** Start new reaction path calculation ********
 RCFC Option Requested - Data Read From Chk File:
 "e6_07_irc2.chk"
   Energy From Chk =   -114.3064861

 Setting the phase of the TS vector:      1      2      4      0
 Supplied step size of   0.2000 bohr.
    Integration on MW PES will use step size of   0.2108 sqrt(amu)*bohr.
 Point Number:   0          Path Number:   1
 Calculating another point on the path.
 IRC-IRC-IRC-IRC-IRC-IRC-IRC-IRC-IRC-IRC-IRC-IRC-IRC-IRC-IRC-IRC-IRC-IRC
                          Input orientation:                          
 ---------------------------------------------------------------------
 Center     Atomic      Atomic             Coordinates (Angstroms)
 Number     Number       Type             X           Y           Z
 ---------------------------------------------------------------------
      1          6           0        0.130366    0.686480   -0.102494
      2          8           0       -0.108351   -0.577473    0.086062
      3          1           0       -0.783219    1.323286   -0.083924
      4          1           0        0.950576   -0.332162   -0.061566
 ---------------------------------------------------------------------
                    Distance matrix (angstroms):
                    1          2          3          4
     1  C    0.000000
     2  O    1.300044   0.000000
     3  H    1.113779   2.024161   0.000000
     4  H    1.308453   1.096948   2.397301   0.000000
 Symmetry turned off by external request.
 Stoichiometry    CH2O
 Framework group  C1[X(CH2O)]
 Deg. of freedom     6
 Full point group                 C1      NOp   1
 Rotational constants (GHZ):         266.9310364          38.4385480          33.6000768
 Standard basis: 6-311+G(2d,p) (5D, 7F)
    66 basis functions,   100 primitive gaussians,    70 cartesian basis functions
     8 alpha electrons        8 beta electrons
       nuclear repulsion energy        30.9869217205 Hartrees.
 NAtoms=    4 NActive=    4 NUniq=    4 SFac= 1.00D+00 NAtFMM=   60 NAOKFM=F Big=F
 Integral buffers will be    131072 words long.
 Raffenetti 2 integral format.
 Two-electron integral symmetry is turned off.
 R6APFD:  NTU= -4 IXU= 1 FactS= 1.050
 Nuclear repulsion after empirical dispersion term =       30.9868334424 Hartrees.
 One-electron integrals computed using PRISM.
 NBasis=    66 RedAO= T EigKep=  2.16D-03  NBF=    66
 NBsUse=    66 1.00D-06 EigRej= -1.00D+00 NBFU=    66
 Initial guess from the checkpoint file:  "e6_07_irc2.chk"
 B after Tr=     0.009773    0.057898   -0.008499
         Rot=   -0.005685    0.697345    0.711846   -0.083384 Ang= 180.65 deg.
 Keep R1 ints in memory in canonical form, NReq=3339201.
 Requested convergence on RMS density matrix=1.00D-08 within 128 cycles.
 Requested convergence on MAX density matrix=1.00D-06.
 Requested convergence on             energy=1.00D-06.
 No special actions if energy rises.
 SCF Done:  E(RAPFD) =  -114.309881681     A.U. after   10 cycles
            NFock= 10  Conv=0.62D-08     -V/T= 2.0029
 DoSCS=F DFT=T ScalE2(SS,OS)=  1.000000  1.000000
 Range of M.O.s used for correlation:     1    66
 NBasis=    66 NAE=     8 NBE=     8 NFC=     0 NFV=     0
 NROrb=     66 NOA=     8 NOB=     8 NVA=    58 NVB=    58
 Symmetrizing basis deriv contribution to polar:
 IMax=3 JMax=2 DiffMx= 0.00D+00

 **********************************************************************

            Population analysis using the SCF Density.

 **********************************************************************

 Alpha  occ. eigenvalues --  -19.24756 -10.28835  -1.14608  -0.63164  -0.56964
 Alpha  occ. eigenvalues --   -0.45721  -0.43996  -0.23915
 Alpha virt. eigenvalues --   -0.07246   0.00646   0.04277   0.06663   0.07654
 Alpha virt. eigenvalues --    0.09689   0.18234   0.19531   0.20692   0.21258
 Alpha virt. eigenvalues --    0.25790   0.30591   0.40468   0.53367   0.53750
 Alpha virt. eigenvalues --    0.56123   0.57108   0.59818   0.71472   0.78317
 Alpha virt. eigenvalues --    0.78606   0.95144   0.95919   1.03931   1.13078
 Alpha virt. eigenvalues --    1.23895   1.24514   1.42637   1.55997   1.59541
 Alpha virt. eigenvalues --    1.75326   1.80102   1.95858   1.99631   2.08663
 Alpha virt. eigenvalues --    2.31579   2.43433   2.59192   2.69457   2.72429
 Alpha virt. eigenvalues --    2.74531   3.04173   3.20945   3.26635   3.29422
 Alpha virt. eigenvalues --    3.38116   3.56167   3.91140   4.94695   5.22628
 Alpha virt. eigenvalues --    5.72166   6.72697   6.81321   6.90447   7.11926
 Alpha virt. eigenvalues --    7.15823  23.89394  49.88316
          Condensed to atoms (all electrons):
               1          2          3          4
     1  C    6.089783  -0.173564   0.259366   0.103171
     2  O   -0.173564   8.170402  -0.033633   0.208255
     3  H    0.259366  -0.033633   0.658083   0.007464
     4  H    0.103171   0.208255   0.007464   0.339615
 Mulliken charges:
               1
     1  C   -0.278755
     2  O   -0.171460
     3  H    0.108720
     4  H    0.341495
 Sum of Mulliken charges =  -0.00000
 Mulliken charges with hydrogens summed into heavy atoms:
               1
     1  C   -0.170035
     2  O    0.170035
 Electronic spatial extent (au):  <R**2>=             61.2943
 Charge=             -0.0000 electrons
 Dipole moment (field-independent basis, Debye):
    X=             -0.1130    Y=             -0.0519    Z=              0.0193  Tot=              0.1258
 Quadrupole moment (field-independent basis, Debye-Ang):
   XX=            -12.2969   YY=            -13.4856   ZZ=            -12.4576
   XY=             -2.8768   XZ=              0.3630   YZ=              0.4605
 Traceless Quadrupole moment (field-independent basis, Debye-Ang):
   XX=              0.4498   YY=             -0.7389   ZZ=              0.2891
   XY=             -2.8768   XZ=              0.3630   YZ=              0.4605
 Octapole moment (field-independent basis, Debye-Ang**2):
  XXX=             -1.8892  YYY=             -5.4746  ZZZ=              0.9617  XYY=             -2.4462
  XXY=             -3.9977  XXZ=              0.5266  XZZ=             -0.9673  YZZ=             -1.7683
  YYZ=              0.5377  XYZ=              0.4536
 Hexadecapole moment (field-independent basis, Debye-Ang**3):
 XXXX=            -22.2034 YYYY=            -49.4962 ZZZZ=            -13.0663 XXXY=             -4.3141
 XXXZ=              0.9699 YYYX=             -3.9408 YYYZ=              2.8546 ZZZX=              0.9912
 ZZZY=              2.6372 XXYY=            -13.1796 XXZZ=             -6.3302 YYZZ=            -10.4256
 XXYZ=              1.2119 YYXZ=              0.6377 ZZXY=             -0.8329
 N-N= 3.098683344243D+01 E-N=-3.304322534076D+02  KE= 1.139768498309D+02
  Exact polarizability:       0.000       0.000       0.000       0.000       0.000       0.000
 Approx polarizability:      22.493      -1.720      35.440      -0.262      -2.040      18.382
 R6APFD:  NTU= -4 IXU= 1 FactS= 1.050
 Calling FoFJK, ICntrl=      2127 FMM=F ISym2X=0 I1Cent= 0 IOpClX= 0 NMat=1 NMatS=1 NMatT=0.
 -------------------------------------------------------------------
 Center     Atomic                   Forces (Hartrees/Bohr)
 Number     Number              X              Y              Z
 -------------------------------------------------------------------
      1        6          -0.008366149    0.025695972   -0.002377900
      2        8           0.021092181    0.004447218   -0.002881793
      3        1          -0.003893621   -0.003255108    0.000841407
      4        1          -0.008832412   -0.026888081    0.004418285
 -------------------------------------------------------------------
 Cartesian Forces:  Max     0.026888081 RMS     0.013088984
 IRC-IRC-IRC-IRC-IRC-IRC-IRC-IRC-IRC-IRC-IRC-IRC-IRC-IRC-IRC-IRC-IRC-IRC
 Pt  1 Step number   1 out of a maximum of  20
 Modified Bulirsch-Stoer Extrapolation Cycles:
    EPS =    0.000010000000000
      PEZero:  N= 2 I= 1 D=  5.49D-04 Err=  1.43D-03
      PEZero:  N= 3 I= 2 D=  5.49D-04 Err=  9.54D-04
      PEZero:  N= 3 I= 1 D=  1.10D-03 Err=  2.41D-07
 Maximum DWI energy   std dev =  0.000035093 at pt     1
 Maximum DWI gradient std dev =  0.034729186 at pt     1
 Point Number:   1          Path Number:   1
   CHANGE IN THE REACTION COORDINATE =    0.21074
   NET REACTION COORDINATE UP TO THIS POINT =    0.21074
  # OF POINTS ALONG THE PATH =   1
  # OF STEPS =   1

 Calculating another point on the path.
 IRC-IRC-IRC-IRC-IRC-IRC-IRC-IRC-IRC-IRC-IRC-IRC-IRC-IRC-IRC-IRC-IRC-IRC
                          Input orientation:                          
 ---------------------------------------------------------------------
 Center     Atomic      Atomic             Coordinates (Angstroms)
 Number     Number       Type             X           Y           Z
 ---------------------------------------------------------------------
      1          6           0        0.127957    0.694103   -0.103207
      2          8           0       -0.103468   -0.576363    0.085384
      3          1           0       -0.797959    1.311685   -0.080834
      4          1           0        0.916468   -0.429051   -0.045399
 ---------------------------------------------------------------------
                    Distance matrix (angstroms):
                    1          2          3          4
     1  C    0.000000
     2  O    1.305070   0.000000
     3  H    1.113205   2.018581   0.000000
     4  H    1.373524   1.038786   2.443497   0.000000
 Symmetry turned off by external request.
 Stoichiometry    CH2O
 Framework group  C1[X(CH2O)]
 Deg. of freedom     6
 Full point group                 C1      NOp   1
 Rotational constants (GHZ):         273.7624893          38.0635610          33.4172697
 Standard basis: 6-311+G(2d,p) (5D, 7F)
    66 basis functions,   100 primitive gaussians,    70 cartesian basis functions
     8 alpha electrons        8 beta electrons
       nuclear repulsion energy        31.0158812803 Hartrees.
 NAtoms=    4 NActive=    4 NUniq=    4 SFac= 1.00D+00 NAtFMM=   60 NAOKFM=F Big=F
 Integral buffers will be    131072 words long.
 Raffenetti 2 integral format.
 Two-electron integral symmetry is turned off.
 R6APFD:  NTU= -4 IXU= 1 FactS= 1.050
 Nuclear repulsion after empirical dispersion term =       31.0157852973 Hartrees.
 One-electron integrals computed using PRISM.
 NBasis=    66 RedAO= T EigKep=  2.19D-03  NBF=    66
 NBsUse=    66 1.00D-06 EigRej= -1.00D+00 NBFU=    66
 Initial guess from the checkpoint file:  "e6_07_irc2.chk"
 B after Tr=    -0.003106   -0.006317    0.001150
         Rot=    0.999998    0.000226    0.000264    0.002055 Ang=   0.24 deg.
 ExpMin= 4.38D-02 ExpMax= 8.59D+03 ExpMxC= 1.30D+03 IAcc=3 IRadAn=         5 AccDes= 0.00D+00
 Harris functional with IExCor= 3731 and IRadAn=       5 diagonalized for initial guess.
 HarFok:  IExCor= 3731 AccDes= 0.00D+00 IRadAn=         5 IDoV= 1 UseB2=F ITyADJ=14
 ICtDFT=  3500011 ScaDFX=  1.000000  1.000000  1.000000  1.000000
 FoFCou: FMM=F IPFlag=           0 FMFlag=      100000 FMFlg1=           0
         NFxFlg=           0 DoJE=T BraDBF=F KetDBF=T FulRan=T
         wScrn=  0.000000 ICntrl=       500 IOpCl=  0 I1Cent=   200000004 NGrid=           0
         NMat0=    1 NMatS0=      1 NMatT0=    0 NMatD0=    1 NMtDS0=    0 NMtDT0=    0
 Symmetry not used in FoFCou.
 Keep R1 ints in memory in canonical form, NReq=3339201.
 Requested convergence on RMS density matrix=1.00D-08 within 128 cycles.
 Requested convergence on MAX density matrix=1.00D-06.
 Requested convergence on             energy=1.00D-06.
 No special actions if energy rises.
 SCF Done:  E(RAPFD) =  -114.318361314     A.U. after   10 cycles
            NFock= 10  Conv=0.25D-08     -V/T= 2.0027
 DoSCS=F DFT=T ScalE2(SS,OS)=  1.000000  1.000000
 Range of M.O.s used for correlation:     1    66
 NBasis=    66 NAE=     8 NBE=     8 NFC=     0 NFV=     0
 NROrb=     66 NOA=     8 NOB=     8 NVA=    58 NVB=    58
 Symmetrizing basis deriv contribution to polar:
 IMax=3 JMax=2 DiffMx= 0.00D+00
 R6APFD:  NTU= -4 IXU= 1 FactS= 1.050
 Calling FoFJK, ICntrl=      2127 FMM=F ISym2X=0 I1Cent= 0 IOpClX= 0 NMat=1 NMatS=1 NMatT=0.
 -------------------------------------------------------------------
 Center     Atomic                   Forces (Hartrees/Bohr)
 Number     Number              X              Y              Z
 -------------------------------------------------------------------
      1        6          -0.013691808    0.038706975   -0.003466300
      2        8           0.029735021    0.010215369   -0.004570358
      3        1          -0.006445148   -0.005810957    0.001450097
      4        1          -0.009598065   -0.043111388    0.006586561
 -------------------------------------------------------------------
 Cartesian Forces:  Max     0.043111388 RMS     0.019955433
 IRC-IRC-IRC-IRC-IRC-IRC-IRC-IRC-IRC-IRC-IRC-IRC-IRC-IRC-IRC-IRC-IRC-IRC
 Pt  2 Step number   1 out of a maximum of  20
 Modified Bulirsch-Stoer Extrapolation Cycles:
    EPS =    0.000010000000000
      PEZero:  N= 2 I= 1 D=  1.10D-03 Err=  7.97D-05
      PEZero:  N= 3 I= 2 D=  1.10D-03 Err=  5.29D-05
      PEZero:  N= 3 I= 1 D=  2.19D-03 Err=  3.86D-07
 Maximum DWI energy   std dev =  0.000151425 at pt    36
 Maximum DWI gradient std dev =  0.043482772 at pt    37
 Point Number:   2          Path Number:   1
   CHANGE IN THE REACTION COORDINATE =    0.21057
   NET REACTION COORDINATE UP TO THIS POINT =    0.42131
  # OF POINTS ALONG THE PATH =   2
  # OF STEPS =   1

 Calculating another point on the path.
 IRC-IRC-IRC-IRC-IRC-IRC-IRC-IRC-IRC-IRC-IRC-IRC-IRC-IRC-IRC-IRC-IRC-IRC
                          Input orientation:                          
 ---------------------------------------------------------------------
 Center     Atomic      Atomic             Coordinates (Angstroms)
 Number     Number       Type             X           Y           Z
 ---------------------------------------------------------------------
      1          6           0        0.125450    0.701279   -0.103853
      2          8           0       -0.099157   -0.574544    0.084678
      3          1           0       -0.813913    1.297403   -0.077257
      4          1           0        0.893534   -0.529717   -0.029961
 ---------------------------------------------------------------------
                    Distance matrix (angstroms):
                    1          2          3          4
     1  C    0.000000
     2  O    1.309090   0.000000
     3  H    1.112868   2.010294   0.000000
     4  H    1.452847   1.000294   2.501196   0.000000
 Symmetry turned off by external request.
 Stoichiometry    CH2O
 Framework group  C1[X(CH2O)]
 Deg. of freedom     6
 Full point group                 C1      NOp   1
 Rotational constants (GHZ):         277.3942858          37.6917256          33.1829054
 Standard basis: 6-311+G(2d,p) (5D, 7F)
    66 basis functions,   100 primitive gaussians,    70 cartesian basis functions
     8 alpha electrons        8 beta electrons
       nuclear repulsion energy        30.9912452148 Hartrees.
 NAtoms=    4 NActive=    4 NUniq=    4 SFac= 1.00D+00 NAtFMM=   60 NAOKFM=F Big=F
 Integral buffers will be    131072 words long.
 Raffenetti 2 integral format.
 Two-electron integral symmetry is turned off.
 R6APFD:  NTU= -4 IXU= 1 FactS= 1.050
 Nuclear repulsion after empirical dispersion term =       30.9911437292 Hartrees.
 One-electron integrals computed using PRISM.
 NBasis=    66 RedAO= T EigKep=  2.19D-03  NBF=    66
 NBsUse=    66 1.00D-06 EigRej= -1.00D+00 NBFU=    66
 Initial guess from the checkpoint file:  "e6_07_irc2.chk"
 B after Tr=    -0.002499   -0.006742    0.001139
         Rot=    0.999998    0.000212    0.000248    0.001931 Ang=   0.22 deg.
 ExpMin= 4.38D-02 ExpMax= 8.59D+03 ExpMxC= 1.30D+03 IAcc=3 IRadAn=         5 AccDes= 0.00D+00
 Harris functional with IExCor= 3731 and IRadAn=       5 diagonalized for initial guess.
 HarFok:  IExCor= 3731 AccDes= 0.00D+00 IRadAn=         5 IDoV= 1 UseB2=F ITyADJ=14
 ICtDFT=  3500011 ScaDFX=  1.000000  1.000000  1.000000  1.000000
 FoFCou: FMM=F IPFlag=           0 FMFlag=      100000 FMFlg1=           0
         NFxFlg=           0 DoJE=T BraDBF=F KetDBF=T FulRan=T
         wScrn=  0.000000 ICntrl=       500 IOpCl=  0 I1Cent=   200000004 NGrid=           0
         NMat0=    1 NMatS0=      1 NMatT0=    0 NMatD0=    1 NMtDS0=    0 NMtDT0=    0
 Symmetry not used in FoFCou.
 Keep R1 ints in memory in canonical form, NReq=3339201.
 Requested convergence on RMS density matrix=1.00D-08 within 128 cycles.
 Requested convergence on MAX density matrix=1.00D-06.
 Requested convergence on             energy=1.00D-06.
 No special actions if energy rises.
 SCF Done:  E(RAPFD) =  -114.328961749     A.U. after   10 cycles
            NFock= 10  Conv=0.18D-08     -V/T= 2.0026
 DoSCS=F DFT=T ScalE2(SS,OS)=  1.000000  1.000000
 Range of M.O.s used for correlation:     1    66
 NBasis=    66 NAE=     8 NBE=     8 NFC=     0 NFV=     0
 NROrb=     66 NOA=     8 NOB=     8 NVA=    58 NVB=    58
 Symmetrizing basis deriv contribution to polar:
 IMax=3 JMax=2 DiffMx= 0.00D+00
 R6APFD:  NTU= -4 IXU= 1 FactS= 1.050
 Calling FoFJK, ICntrl=      2127 FMM=F ISym2X=0 I1Cent= 0 IOpClX= 0 NMat=1 NMatS=1 NMatT=0.
 -------------------------------------------------------------------
 Center     Atomic                   Forces (Hartrees/Bohr)
 Number     Number              X              Y              Z
 -------------------------------------------------------------------
      1        6          -0.014250234    0.038618022   -0.003393750
      2        8           0.028794537    0.015662375   -0.005166733
      3        1          -0.007413557   -0.007515013    0.001775162
      4        1          -0.007130746   -0.046765383    0.006785321
 -------------------------------------------------------------------
 Cartesian Forces:  Max     0.046765383 RMS     0.020827757
 IRC-IRC-IRC-IRC-IRC-IRC-IRC-IRC-IRC-IRC-IRC-IRC-IRC-IRC-IRC-IRC-IRC-IRC
 Pt  3 Step number   1 out of a maximum of  20
 Modified Bulirsch-Stoer Extrapolation Cycles:
    EPS =    0.000010000000000
      PEZero:  N= 2 I= 1 D=  1.10D-03 Err=  8.00D-05
      PEZero:  N= 3 I= 2 D=  1.10D-03 Err=  5.31D-05
      PEZero:  N= 3 I= 1 D=  2.20D-03 Err=  3.33D-07
 Maximum DWI energy   std dev =  0.000179998 at pt    35
 Maximum DWI gradient std dev =  0.032355399 at pt    38
 Point Number:   3          Path Number:   1
   CHANGE IN THE REACTION COORDINATE =    0.21062
   NET REACTION COORDINATE UP TO THIS POINT =    0.63193
  # OF POINTS ALONG THE PATH =   3
  # OF STEPS =   1

 Calculating another point on the path.
 IRC-IRC-IRC-IRC-IRC-IRC-IRC-IRC-IRC-IRC-IRC-IRC-IRC-IRC-IRC-IRC-IRC-IRC
                          Input orientation:                          
 ---------------------------------------------------------------------
 Center     Atomic      Atomic             Coordinates (Angstroms)
 Number     Number       Type             X           Y           Z
 ---------------------------------------------------------------------
      1          6           0        0.123077    0.707864   -0.104437
      2          8           0       -0.095370   -0.571995    0.083936
      3          1           0       -0.831190    1.279664   -0.073091
      4          1           0        0.878553   -0.631727   -0.015224
 ---------------------------------------------------------------------
                    Distance matrix (angstroms):
                    1          2          3          4
     1  C    0.000000
     2  O    1.311961   0.000000
     3  H    1.112907   1.998682   0.000000
     4  H    1.540521   0.980778   2.565148   0.000000
 Symmetry turned off by external request.
 Stoichiometry    CH2O
 Framework group  C1[X(CH2O)]
 Deg. of freedom     6
 Full point group                 C1      NOp   1
 Rotational constants (GHZ):         278.5609443          37.3387703          32.9253958
 Standard basis: 6-311+G(2d,p) (5D, 7F)
    66 basis functions,   100 primitive gaussians,    70 cartesian basis functions
     8 alpha electrons        8 beta electrons
       nuclear repulsion energy        30.9154826861 Hartrees.
 NAtoms=    4 NActive=    4 NUniq=    4 SFac= 1.00D+00 NAtFMM=   60 NAOKFM=F Big=F
 Integral buffers will be    131072 words long.
 Raffenetti 2 integral format.
 Two-electron integral symmetry is turned off.
 R6APFD:  NTU= -4 IXU= 1 FactS= 1.050
 Nuclear repulsion after empirical dispersion term =       30.9153793179 Hartrees.
 One-electron integrals computed using PRISM.
 NBasis=    66 RedAO= T EigKep=  2.18D-03  NBF=    66
 NBsUse=    66 1.00D-06 EigRej= -1.00D+00 NBFU=    66
 Initial guess from the checkpoint file:  "e6_07_irc2.chk"
 B after Tr=    -0.002070   -0.007051    0.001132
         Rot=    0.999998    0.000189    0.000221    0.001718 Ang=   0.20 deg.
 ExpMin= 4.38D-02 ExpMax= 8.59D+03 ExpMxC= 1.30D+03 IAcc=3 IRadAn=         5 AccDes= 0.00D+00
 Harris functional with IExCor= 3731 and IRadAn=       5 diagonalized for initial guess.
 HarFok:  IExCor= 3731 AccDes= 0.00D+00 IRadAn=         5 IDoV= 1 UseB2=F ITyADJ=14
 ICtDFT=  3500011 ScaDFX=  1.000000  1.000000  1.000000  1.000000
 FoFCou: FMM=F IPFlag=           0 FMFlag=      100000 FMFlg1=           0
         NFxFlg=           0 DoJE=T BraDBF=F KetDBF=T FulRan=T
         wScrn=  0.000000 ICntrl=       500 IOpCl=  0 I1Cent=   200000004 NGrid=           0
         NMat0=    1 NMatS0=      1 NMatT0=    0 NMatD0=    1 NMtDS0=    0 NMtDT0=    0
 Symmetry not used in FoFCou.
 Keep R1 ints in memory in canonical form, NReq=3339201.
 Requested convergence on RMS density matrix=1.00D-08 within 128 cycles.
 Requested convergence on MAX density matrix=1.00D-06.
 Requested convergence on             energy=1.00D-06.
 No special actions if energy rises.
 SCF Done:  E(RAPFD) =  -114.339271483     A.U. after   10 cycles
            NFock= 10  Conv=0.16D-08     -V/T= 2.0027
 DoSCS=F DFT=T ScalE2(SS,OS)=  1.000000  1.000000
 Range of M.O.s used for correlation:     1    66
 NBasis=    66 NAE=     8 NBE=     8 NFC=     0 NFV=     0
 NROrb=     66 NOA=     8 NOB=     8 NVA=    58 NVB=    58
 Symmetrizing basis deriv contribution to polar:
 IMax=3 JMax=2 DiffMx= 0.00D+00
 R6APFD:  NTU= -4 IXU= 1 FactS= 1.050
 Calling FoFJK, ICntrl=      2127 FMM=F ISym2X=0 I1Cent= 0 IOpClX= 0 NMat=1 NMatS=1 NMatT=0.
 -------------------------------------------------------------------
 Center     Atomic                   Forces (Hartrees/Bohr)
 Number     Number              X              Y              Z
 -------------------------------------------------------------------
      1        6          -0.011549493    0.030724960   -0.002676114
      2        8           0.025426251    0.019368306   -0.005273488
      3        1          -0.007167210   -0.008435544    0.001866393
      4        1          -0.006709549   -0.041657722    0.006083209
 -------------------------------------------------------------------
 Cartesian Forces:  Max     0.041657722 RMS     0.018433237
 IRC-IRC-IRC-IRC-IRC-IRC-IRC-IRC-IRC-IRC-IRC-IRC-IRC-IRC-IRC-IRC-IRC-IRC
 Reaction path inflection point has been passed.
   Previous lowest Hessian eigenvalue=   -0.0178316987
   Current lowest Hessian eigenvalue =    0.0208625390
 Pt  4 Step number   1 out of a maximum of  20
 Modified Bulirsch-Stoer Extrapolation Cycles:
    EPS =    0.000010000000000
      PEZero:  N= 2 I= 1 D=  1.10D-03 Err=  5.23D-05
      PEZero:  N= 3 I= 2 D=  1.10D-03 Err=  3.49D-05
      PEZero:  N= 3 I= 1 D=  2.20D-03 Err=  6.10D-08
 Maximum DWI energy   std dev =  0.000127353 at pt    46
 Maximum DWI gradient std dev =  0.009145531 at pt    39
 Point Number:   4          Path Number:   1
   CHANGE IN THE REACTION COORDINATE =    0.21069
   NET REACTION COORDINATE UP TO THIS POINT =    0.84262
  # OF POINTS ALONG THE PATH =   4
  # OF STEPS =   1

 Calculating another point on the path.
 IRC-IRC-IRC-IRC-IRC-IRC-IRC-IRC-IRC-IRC-IRC-IRC-IRC-IRC-IRC-IRC-IRC-IRC
                          Input orientation:                          
 ---------------------------------------------------------------------
 Center     Atomic      Atomic             Coordinates (Angstroms)
 Number     Number       Type             X           Y           Z
 ---------------------------------------------------------------------
      1          6           0        0.120917    0.713650   -0.104943
      2          8           0       -0.091585   -0.568592    0.083084
      3          1           0       -0.849760    1.257248   -0.068183
      4          1           0        0.862700   -0.732386   -0.000565
 ---------------------------------------------------------------------
                    Distance matrix (angstroms):
                    1          2          3          4
     1  C    0.000000
     2  O    1.313262   0.000000
     3  H    1.113133   1.982777   0.000000
     4  H    1.628545   0.971846   2.625973   0.000000
 Symmetry turned off by external request.
 Stoichiometry    CH2O
 Framework group  C1[X(CH2O)]
 Deg. of freedom     6
 Full point group                 C1      NOp   1
 Rotational constants (GHZ):         279.8633116          37.0371723          32.7085196
 Standard basis: 6-311+G(2d,p) (5D, 7F)
    66 basis functions,   100 primitive gaussians,    70 cartesian basis functions
     8 alpha electrons        8 beta electrons
       nuclear repulsion energy        30.8361999029 Hartrees.
 NAtoms=    4 NActive=    4 NUniq=    4 SFac= 1.00D+00 NAtFMM=   60 NAOKFM=F Big=F
 Integral buffers will be    131072 words long.
 Raffenetti 2 integral format.
 Two-electron integral symmetry is turned off.
 R6APFD:  NTU= -4 IXU= 1 FactS= 1.050
 Nuclear repulsion after empirical dispersion term =       30.8360977584 Hartrees.
 One-electron integrals computed using PRISM.
 NBasis=    66 RedAO= T EigKep=  2.16D-03  NBF=    66
 NBsUse=    66 1.00D-06 EigRej= -1.00D+00 NBFU=    66
 Initial guess from the checkpoint file:  "e6_07_irc2.chk"
 B after Tr=    -0.002134   -0.007211    0.001159
         Rot=    0.999999    0.000163    0.000192    0.001489 Ang=   0.17 deg.
 ExpMin= 4.38D-02 ExpMax= 8.59D+03 ExpMxC= 1.30D+03 IAcc=3 IRadAn=         5 AccDes= 0.00D+00
 Harris functional with IExCor= 3731 and IRadAn=       5 diagonalized for initial guess.
 HarFok:  IExCor= 3731 AccDes= 0.00D+00 IRadAn=         5 IDoV= 1 UseB2=F ITyADJ=14
 ICtDFT=  3500011 ScaDFX=  1.000000  1.000000  1.000000  1.000000
 FoFCou: FMM=F IPFlag=           0 FMFlag=      100000 FMFlg1=           0
         NFxFlg=           0 DoJE=T BraDBF=F KetDBF=T FulRan=T
         wScrn=  0.000000 ICntrl=       500 IOpCl=  0 I1Cent=   200000004 NGrid=           0
         NMat0=    1 NMatS0=      1 NMatT0=    0 NMatD0=    1 NMtDS0=    0 NMtDT0=    0
 Symmetry not used in FoFCou.
 Keep R1 ints in memory in canonical form, NReq=3339201.
 Requested convergence on RMS density matrix=1.00D-08 within 128 cycles.
 Requested convergence on MAX density matrix=1.00D-06.
 Requested convergence on             energy=1.00D-06.
 No special actions if energy rises.
 SCF Done:  E(RAPFD) =  -114.347926434     A.U. after    9 cycles
            NFock=  9  Conv=0.95D-08     -V/T= 2.0029
 DoSCS=F DFT=T ScalE2(SS,OS)=  1.000000  1.000000
 Range of M.O.s used for correlation:     1    66
 NBasis=    66 NAE=     8 NBE=     8 NFC=     0 NFV=     0
 NROrb=     66 NOA=     8 NOB=     8 NVA=    58 NVB=    58
 Symmetrizing basis deriv contribution to polar:
 IMax=3 JMax=2 DiffMx= 0.00D+00
 R6APFD:  NTU= -4 IXU= 1 FactS= 1.050
 Calling FoFJK, ICntrl=      2127 FMM=F ISym2X=0 I1Cent= 0 IOpClX= 0 NMat=1 NMatS=1 NMatT=0.
 -------------------------------------------------------------------
 Center     Atomic                   Forces (Hartrees/Bohr)
 Number     Number              X              Y              Z
 -------------------------------------------------------------------
      1        6          -0.007484304    0.020450408   -0.001802486
      2        8           0.020553492    0.020078530   -0.004830299
      3        1          -0.006178118   -0.008515407    0.001768382
      4        1          -0.006891070   -0.032013532    0.004864403
 -------------------------------------------------------------------
 Cartesian Forces:  Max     0.032013532 RMS     0.014537974
 IRC-IRC-IRC-IRC-IRC-IRC-IRC-IRC-IRC-IRC-IRC-IRC-IRC-IRC-IRC-IRC-IRC-IRC
 Pt  5 Step number   1 out of a maximum of  20
 Modified Bulirsch-Stoer Extrapolation Cycles:
    EPS =    0.000010000000000
      PEZero:  N= 2 I= 1 D=  1.10D-03 Err=  6.93D-05
      PEZero:  N= 3 I= 2 D=  1.10D-03 Err=  4.62D-05
      PEZero:  N= 3 I= 1 D=  2.20D-03 Err=  1.56D-07
 Maximum DWI energy   std dev =  0.000066507 at pt    46
 Maximum DWI gradient std dev =  0.014821414 at pt    59
 Point Number:   5          Path Number:   1
   CHANGE IN THE REACTION COORDINATE =    0.21066
   NET REACTION COORDINATE UP TO THIS POINT =    1.05328
  # OF POINTS ALONG THE PATH =   5
  # OF STEPS =   1

 Calculating another point on the path.
 IRC-IRC-IRC-IRC-IRC-IRC-IRC-IRC-IRC-IRC-IRC-IRC-IRC-IRC-IRC-IRC-IRC-IRC
                          Input orientation:                          
 ---------------------------------------------------------------------
 Center     Atomic      Atomic             Coordinates (Angstroms)
 Number     Number       Type             X           Y           Z
 ---------------------------------------------------------------------
      1          6           0        0.119170    0.718471   -0.105370
      2          8           0       -0.087694   -0.564195    0.082093
      3          1           0       -0.870434    1.228205   -0.062196
      4          1           0        0.842619   -0.830103    0.014177
 ---------------------------------------------------------------------
                    Distance matrix (angstroms):
                    1          2          3          4
     1  C    0.000000
     2  O    1.312694   0.000000
     3  H    1.114006   1.961173   0.000000
     4  H    1.713403   0.969949   2.678996   0.000000
 Symmetry turned off by external request.
 Stoichiometry    CH2O
 Framework group  C1[X(CH2O)]
 Deg. of freedom     6
 Full point group                 C1      NOp   1
 Rotational constants (GHZ):         281.8221394          36.8216850          32.5666630
 Standard basis: 6-311+G(2d,p) (5D, 7F)
    66 basis functions,   100 primitive gaussians,    70 cartesian basis functions
     8 alpha electrons        8 beta electrons
       nuclear repulsion energy        30.7738256589 Hartrees.
 NAtoms=    4 NActive=    4 NUniq=    4 SFac= 1.00D+00 NAtFMM=   60 NAOKFM=F Big=F
 Integral buffers will be    131072 words long.
 Raffenetti 2 integral format.
 Two-electron integral symmetry is turned off.
 R6APFD:  NTU= -4 IXU= 1 FactS= 1.050
 Nuclear repulsion after empirical dispersion term =       30.7737262678 Hartrees.
 One-electron integrals computed using PRISM.
 NBasis=    66 RedAO= T EigKep=  2.12D-03  NBF=    66
 NBsUse=    66 1.00D-06 EigRej= -1.00D+00 NBFU=    66
 Initial guess from the checkpoint file:  "e6_07_irc2.chk"
 B after Tr=    -0.002450   -0.007397    0.001218
         Rot=    0.999999    0.000133    0.000156    0.001216 Ang=   0.14 deg.
 ExpMin= 4.38D-02 ExpMax= 8.59D+03 ExpMxC= 1.30D+03 IAcc=3 IRadAn=         5 AccDes= 0.00D+00
 Harris functional with IExCor= 3731 and IRadAn=       5 diagonalized for initial guess.
 HarFok:  IExCor= 3731 AccDes= 0.00D+00 IRadAn=         5 IDoV= 1 UseB2=F ITyADJ=14
 ICtDFT=  3500011 ScaDFX=  1.000000  1.000000  1.000000  1.000000
 FoFCou: FMM=F IPFlag=           0 FMFlag=      100000 FMFlg1=           0
         NFxFlg=           0 DoJE=T BraDBF=F KetDBF=T FulRan=T
         wScrn=  0.000000 ICntrl=       500 IOpCl=  0 I1Cent=   200000004 NGrid=           0
         NMat0=    1 NMatS0=      1 NMatT0=    0 NMatD0=    1 NMtDS0=    0 NMtDT0=    0
 Symmetry not used in FoFCou.
 Keep R1 ints in memory in canonical form, NReq=3339201.
 Requested convergence on RMS density matrix=1.00D-08 within 128 cycles.
 Requested convergence on MAX density matrix=1.00D-06.
 Requested convergence on             energy=1.00D-06.
 No special actions if energy rises.
 SCF Done:  E(RAPFD) =  -114.354294355     A.U. after    9 cycles
            NFock=  9  Conv=0.91D-08     -V/T= 2.0031
 DoSCS=F DFT=T ScalE2(SS,OS)=  1.000000  1.000000
 Range of M.O.s used for correlation:     1    66
 NBasis=    66 NAE=     8 NBE=     8 NFC=     0 NFV=     0
 NROrb=     66 NOA=     8 NOB=     8 NVA=    58 NVB=    58
 Symmetrizing basis deriv contribution to polar:
 IMax=3 JMax=2 DiffMx= 0.00D+00
 R6APFD:  NTU= -4 IXU= 1 FactS= 1.050
 Calling FoFJK, ICntrl=      2127 FMM=F ISym2X=0 I1Cent= 0 IOpClX= 0 NMat=1 NMatS=1 NMatT=0.
 -------------------------------------------------------------------
 Center     Atomic                   Forces (Hartrees/Bohr)
 Number     Number              X              Y              Z
 -------------------------------------------------------------------
      1        6          -0.003627309    0.010841748   -0.000992194
      2        8           0.015649020    0.016915774   -0.003886845
      3        1          -0.004414704   -0.007610948    0.001459549
      4        1          -0.007607007   -0.020146574    0.003419490
 -------------------------------------------------------------------
 Cartesian Forces:  Max     0.020146574 RMS     0.010135821
 IRC-IRC-IRC-IRC-IRC-IRC-IRC-IRC-IRC-IRC-IRC-IRC-IRC-IRC-IRC-IRC-IRC-IRC
 Pt  6 Step number   1 out of a maximum of  20
 Modified Bulirsch-Stoer Extrapolation Cycles:
    EPS =    0.000010000000000
      PEZero:  N= 2 I= 1 D=  1.10D-03 Err=  8.80D-05
      PEZero:  N= 3 I= 2 D=  1.10D-03 Err=  5.85D-05
      PEZero:  N= 3 I= 1 D=  2.19D-03 Err=  3.42D-07
 Maximum DWI energy   std dev =  0.000030751 at pt    35
 Maximum DWI gradient std dev =  0.037339340 at pt    30
 Point Number:   6          Path Number:   1
   CHANGE IN THE REACTION COORDINATE =    0.21054
   NET REACTION COORDINATE UP TO THIS POINT =    1.26382
  # OF POINTS ALONG THE PATH =   6
  # OF STEPS =   1

 Calculating another point on the path.
 IRC-IRC-IRC-IRC-IRC-IRC-IRC-IRC-IRC-IRC-IRC-IRC-IRC-IRC-IRC-IRC-IRC-IRC
                          Input orientation:                          
 ---------------------------------------------------------------------
 Center     Atomic      Atomic             Coordinates (Angstroms)
 Number     Number       Type             X           Y           Z
 ---------------------------------------------------------------------
      1          6           0        0.117833    0.722320   -0.105716
      2          8           0       -0.083393   -0.558856    0.080937
      3          1           0       -0.893614    1.189941   -0.054749
      4          1           0        0.814089   -0.921366    0.029016
 ---------------------------------------------------------------------
                    Distance matrix (angstroms):
                    1          2          3          4
     1  C    0.000000
     2  O    1.310245   0.000000
     3  H    1.115478   1.932138   0.000000
     4  H    1.790149   0.969322   2.716778   0.000000
 Symmetry turned off by external request.
 Stoichiometry    CH2O
 Framework group  C1[X(CH2O)]
 Deg. of freedom     6
 Full point group                 C1      NOp   1
 Rotational constants (GHZ):         285.3308743          36.7248962          32.5370563
 Standard basis: 6-311+G(2d,p) (5D, 7F)
    66 basis functions,   100 primitive gaussians,    70 cartesian basis functions
     8 alpha electrons        8 beta electrons
       nuclear repulsion energy        30.7593072488 Hartrees.
 NAtoms=    4 NActive=    4 NUniq=    4 SFac= 1.00D+00 NAtFMM=   60 NAOKFM=F Big=F
 Integral buffers will be    131072 words long.
 Raffenetti 2 integral format.
 Two-electron integral symmetry is turned off.
 R6APFD:  NTU= -4 IXU= 1 FactS= 1.050
 Nuclear repulsion after empirical dispersion term =       30.7592104999 Hartrees.
 One-electron integrals computed using PRISM.
 NBasis=    66 RedAO= T EigKep=  2.07D-03  NBF=    66
 NBsUse=    66 1.00D-06 EigRej= -1.00D+00 NBFU=    66
 Initial guess from the checkpoint file:  "e6_07_irc2.chk"
 B after Tr=    -0.003028   -0.007528    0.001298
         Rot=    1.000000    0.000086    0.000100    0.000781 Ang=   0.09 deg.
 ExpMin= 4.38D-02 ExpMax= 8.59D+03 ExpMxC= 1.30D+03 IAcc=3 IRadAn=         5 AccDes= 0.00D+00
 Harris functional with IExCor= 3731 and IRadAn=       5 diagonalized for initial guess.
 HarFok:  IExCor= 3731 AccDes= 0.00D+00 IRadAn=         5 IDoV= 1 UseB2=F ITyADJ=14
 ICtDFT=  3500011 ScaDFX=  1.000000  1.000000  1.000000  1.000000
 FoFCou: FMM=F IPFlag=           0 FMFlag=      100000 FMFlg1=           0
         NFxFlg=           0 DoJE=T BraDBF=F KetDBF=T FulRan=T
         wScrn=  0.000000 ICntrl=       500 IOpCl=  0 I1Cent=   200000004 NGrid=           0
         NMat0=    1 NMatS0=      1 NMatT0=    0 NMatD0=    1 NMtDS0=    0 NMtDT0=    0
 Symmetry not used in FoFCou.
 Keep R1 ints in memory in canonical form, NReq=3339201.
 Requested convergence on RMS density matrix=1.00D-08 within 128 cycles.
 Requested convergence on MAX density matrix=1.00D-06.
 Requested convergence on             energy=1.00D-06.
 No special actions if energy rises.
 SCF Done:  E(RAPFD) =  -114.358152146     A.U. after    9 cycles
            NFock=  9  Conv=0.91D-08     -V/T= 2.0032
 DoSCS=F DFT=T ScalE2(SS,OS)=  1.000000  1.000000
 Range of M.O.s used for correlation:     1    66
 NBasis=    66 NAE=     8 NBE=     8 NFC=     0 NFV=     0
 NROrb=     66 NOA=     8 NOB=     8 NVA=    58 NVB=    58
 Symmetrizing basis deriv contribution to polar:
 IMax=3 JMax=2 DiffMx= 0.00D+00
 R6APFD:  NTU= -4 IXU= 1 FactS= 1.050
 Calling FoFJK, ICntrl=      2127 FMM=F ISym2X=0 I1Cent= 0 IOpClX= 0 NMat=1 NMatS=1 NMatT=0.
 -------------------------------------------------------------------
 Center     Atomic                   Forces (Hartrees/Bohr)
 Number     Number              X              Y              Z
 -------------------------------------------------------------------
      1        6          -0.001100133    0.003387257   -0.000313307
      2        8           0.008523437    0.010681167   -0.002305949
      3        1          -0.002001292   -0.005270785    0.000895414
      4        1          -0.005422011   -0.008797639    0.001723842
 -------------------------------------------------------------------
 Cartesian Forces:  Max     0.010681167 RMS     0.005378910
 IRC-IRC-IRC-IRC-IRC-IRC-IRC-IRC-IRC-IRC-IRC-IRC-IRC-IRC-IRC-IRC-IRC-IRC
 Pt  7 Step number   1 out of a maximum of  20
 Modified Bulirsch-Stoer Extrapolation Cycles:
    EPS =    0.000010000000000
      PEZero:  N= 2 I= 1 D=  1.10D-03 Err=  9.67D-05
      PEZero:  N= 3 I= 2 D=  1.10D-03 Err=  6.43D-05
      PEZero:  N= 3 I= 1 D=  2.19D-03 Err=  2.92D-07
 Maximum DWI energy   std dev =  0.000012240 at pt    35
 Maximum DWI gradient std dev =  0.051501233 at pt    41
 Point Number:   7          Path Number:   1
   CHANGE IN THE REACTION COORDINATE =    0.21042
   NET REACTION COORDINATE UP TO THIS POINT =    1.47425
  # OF POINTS ALONG THE PATH =   7
  # OF STEPS =   1

 Calculating another point on the path.
 IRC-IRC-IRC-IRC-IRC-IRC-IRC-IRC-IRC-IRC-IRC-IRC-IRC-IRC-IRC-IRC-IRC-IRC
                          Input orientation:                          
 ---------------------------------------------------------------------
 Center     Atomic      Atomic             Coordinates (Angstroms)
 Number     Number       Type             X           Y           Z
 ---------------------------------------------------------------------
      1          6           0        0.116232    0.724409   -0.105809
      2          8           0       -0.078464   -0.552050    0.079522
      3          1           0       -0.922465    1.136805   -0.044767
      4          1           0        0.785065   -1.000253    0.042334
 ---------------------------------------------------------------------
                    Distance matrix (angstroms):
                    1          2          3          4
     1  C    0.000000
     2  O    1.304454   0.000000
     3  H    1.119236   1.892093   0.000000
     4  H    1.855732   0.973628   2.736834   0.000000
 Symmetry turned off by external request.
 Stoichiometry    CH2O
 Framework group  C1[X(CH2O)]
 Deg. of freedom     6
 Full point group                 C1      NOp   1
 Rotational constants (GHZ):         287.3600853          36.8821144          32.6868235
 Standard basis: 6-311+G(2d,p) (5D, 7F)
    66 basis functions,   100 primitive gaussians,    70 cartesian basis functions
     8 alpha electrons        8 beta electrons
       nuclear repulsion energy        30.7987635922 Hartrees.
 NAtoms=    4 NActive=    4 NUniq=    4 SFac= 1.00D+00 NAtFMM=   60 NAOKFM=F Big=F
 Integral buffers will be    131072 words long.
 Raffenetti 2 integral format.
 Two-electron integral symmetry is turned off.
 R6APFD:  NTU= -4 IXU= 1 FactS= 1.050
 Nuclear repulsion after empirical dispersion term =       30.7986684190 Hartrees.
 One-electron integrals computed using PRISM.
 NBasis=    66 RedAO= T EigKep=  2.01D-03  NBF=    66
 NBsUse=    66 1.00D-06 EigRej= -1.00D+00 NBFU=    66
 Initial guess from the checkpoint file:  "e6_07_irc2.chk"
 B after Tr=    -0.003286   -0.007675    0.001346
         Rot=    1.000000   -0.000093   -0.000107   -0.000853 Ang=  -0.10 deg.
 ExpMin= 4.38D-02 ExpMax= 8.59D+03 ExpMxC= 1.30D+03 IAcc=3 IRadAn=         5 AccDes= 0.00D+00
 Harris functional with IExCor= 3731 and IRadAn=       5 diagonalized for initial guess.
 HarFok:  IExCor= 3731 AccDes= 0.00D+00 IRadAn=         5 IDoV= 1 UseB2=F ITyADJ=14
 ICtDFT=  3500011 ScaDFX=  1.000000  1.000000  1.000000  1.000000
 FoFCou: FMM=F IPFlag=           0 FMFlag=      100000 FMFlg1=           0
         NFxFlg=           0 DoJE=T BraDBF=F KetDBF=T FulRan=T
         wScrn=  0.000000 ICntrl=       500 IOpCl=  0 I1Cent=   200000004 NGrid=           0
         NMat0=    1 NMatS0=      1 NMatT0=    0 NMatD0=    1 NMtDS0=    0 NMtDT0=    0
 Symmetry not used in FoFCou.
 Keep R1 ints in memory in canonical form, NReq=3339201.
 Requested convergence on RMS density matrix=1.00D-08 within 128 cycles.
 Requested convergence on MAX density matrix=1.00D-06.
 Requested convergence on             energy=1.00D-06.
 No special actions if energy rises.
 SCF Done:  E(RAPFD) =  -114.359446562     A.U. after    9 cycles
            NFock=  9  Conv=0.75D-08     -V/T= 2.0032
 DoSCS=F DFT=T ScalE2(SS,OS)=  1.000000  1.000000
 Range of M.O.s used for correlation:     1    66
 NBasis=    66 NAE=     8 NBE=     8 NFC=     0 NFV=     0
 NROrb=     66 NOA=     8 NOB=     8 NVA=    58 NVB=    58
 Symmetrizing basis deriv contribution to polar:
 IMax=3 JMax=2 DiffMx= 0.00D+00
 R6APFD:  NTU= -4 IXU= 1 FactS= 1.050
 Calling FoFJK, ICntrl=      2127 FMM=F ISym2X=0 I1Cent= 0 IOpClX= 0 NMat=1 NMatS=1 NMatT=0.
 -------------------------------------------------------------------
 Center     Atomic                   Forces (Hartrees/Bohr)
 Number     Number              X              Y              Z
 -------------------------------------------------------------------
      1        6          -0.002078531    0.000406552    0.000176503
      2        8           0.005378551   -0.001619330   -0.000380866
      3        1           0.001718567   -0.000803641   -0.000086245
      4        1          -0.005018587    0.002016419    0.000290608
 -------------------------------------------------------------------
 Cartesian Forces:  Max     0.005378551 RMS     0.002400628
 IRC-IRC-IRC-IRC-IRC-IRC-IRC-IRC-IRC-IRC-IRC-IRC-IRC-IRC-IRC-IRC-IRC-IRC
 Pt  8 Step number   1 out of a maximum of  20
 Modified Bulirsch-Stoer Extrapolation Cycles:
    EPS =    0.000010000000000
      PEZero:  N= 2 I= 1 D=  1.09D-03 Err=  6.36D-04
      PEZero:  N= 3 I= 2 D=  1.09D-03 Err=  4.21D-04
      PEZero:  N= 3 I= 1 D=  2.18D-03 Err=  5.29D-06
 Maximum DWI energy   std dev =  0.000012563 at pt    40
 Maximum DWI gradient std dev =  0.304386685 at pt    34
 Point Number:   8          Path Number:   1
   CHANGE IN THE REACTION COORDINATE =    0.20423
   NET REACTION COORDINATE UP TO THIS POINT =    1.67847
  # OF POINTS ALONG THE PATH =   8
  # OF STEPS =   1

 Calculating another point on the path.
 PES minimum detected within a second-order step.
 Calculation of FORWARD path complete.
 Beginning calculation of the REVERSE path.
 
 Calculating another point on the path.
 IRC-IRC-IRC-IRC-IRC-IRC-IRC-IRC-IRC-IRC-IRC-IRC-IRC-IRC-IRC-IRC-IRC-IRC
                          Input orientation:                          
 ---------------------------------------------------------------------
 Center     Atomic      Atomic             Coordinates (Angstroms)
 Number     Number       Type             X           Y           Z
 ---------------------------------------------------------------------
      1          6           0        0.134790    0.670513   -0.100927
      2          8           0       -0.118406   -0.578747    0.087328
      3          1           0       -0.753626    1.343790   -0.089804
      4          1           0        1.027886   -0.142331   -0.094426
 ---------------------------------------------------------------------
                    Distance matrix (angstroms):
                    1          2          3          4
     1  C    0.000000
     2  O    1.288487   0.000000
     3  H    1.114768   2.032493   0.000000
     4  H    1.207633   1.239951   2.319992   0.000000
 Symmetry turned off by external request.
 Stoichiometry    CH2O
 Framework group  C1[X(CH2O)]
 Deg. of freedom     6
 Full point group                 C1      NOp   1
 Rotational constants (GHZ):         252.5496174          39.0781049          33.8416402
 Standard basis: 6-311+G(2d,p) (5D, 7F)
    66 basis functions,   100 primitive gaussians,    70 cartesian basis functions
     8 alpha electrons        8 beta electrons
       nuclear repulsion energy        30.9159295766 Hartrees.
 NAtoms=    4 NActive=    4 NUniq=    4 SFac= 1.00D+00 NAtFMM=   60 NAOKFM=F Big=F
 Integral buffers will be    131072 words long.
 Raffenetti 2 integral format.
 Two-electron integral symmetry is turned off.
 R6APFD:  NTU= -4 IXU= 1 FactS= 1.050
 Nuclear repulsion after empirical dispersion term =       30.9158620295 Hartrees.
 One-electron integrals computed using PRISM.
 NBasis=    66 RedAO= T EigKep=  2.03D-03  NBF=    66
 NBsUse=    66 1.00D-06 EigRej= -1.00D+00 NBFU=    66
 Initial guess from the checkpoint file:  "e6_07_irc2.chk"
 B after Tr=     0.024257    0.062590   -0.010692
         Rot=    0.999892   -0.001589   -0.001863   -0.014484 Ang=  -1.68 deg.
 ExpMin= 4.38D-02 ExpMax= 8.59D+03 ExpMxC= 1.30D+03 IAcc=3 IRadAn=         5 AccDes= 0.00D+00
 Harris functional with IExCor= 3731 and IRadAn=       5 diagonalized for initial guess.
 HarFok:  IExCor= 3731 AccDes= 0.00D+00 IRadAn=         5 IDoV= 1 UseB2=F ITyADJ=14
 ICtDFT=  3500011 ScaDFX=  1.000000  1.000000  1.000000  1.000000
 FoFCou: FMM=F IPFlag=           0 FMFlag=      100000 FMFlg1=           0
         NFxFlg=           0 DoJE=T BraDBF=F KetDBF=T FulRan=T
         wScrn=  0.000000 ICntrl=       500 IOpCl=  0 I1Cent=   200000004 NGrid=           0
         NMat0=    1 NMatS0=      1 NMatT0=    0 NMatD0=    1 NMtDS0=    0 NMtDT0=    0
 Symmetry not used in FoFCou.
 Keep R1 ints in memory in canonical form, NReq=3339201.
 Requested convergence on RMS density matrix=1.00D-08 within 128 cycles.
 Requested convergence on MAX density matrix=1.00D-06.
 Requested convergence on             energy=1.00D-06.
 No special actions if energy rises.
 SCF Done:  E(RAPFD) =  -114.310246566     A.U. after   11 cycles
            NFock= 11  Conv=0.77D-08     -V/T= 2.0033
 DoSCS=F DFT=T ScalE2(SS,OS)=  1.000000  1.000000
 Range of M.O.s used for correlation:     1    66
 NBasis=    66 NAE=     8 NBE=     8 NFC=     0 NFV=     0
 NROrb=     66 NOA=     8 NOB=     8 NVA=    58 NVB=    58
 Symmetrizing basis deriv contribution to polar:
 IMax=3 JMax=2 DiffMx= 0.00D+00
 R6APFD:  NTU= -4 IXU= 1 FactS= 1.050
 Calling FoFJK, ICntrl=      2127 FMM=F ISym2X=0 I1Cent= 0 IOpClX= 0 NMat=1 NMatS=1 NMatT=0.
 -------------------------------------------------------------------
 Center     Atomic                   Forces (Hartrees/Bohr)
 Number     Number              X              Y              Z
 -------------------------------------------------------------------
      1        6           0.007170512   -0.031781131    0.003304533
      2        8          -0.025486112   -0.001369871    0.002969767
      3        1           0.005199931    0.002960733   -0.000954588
      4        1           0.013115669    0.030190269   -0.005319712
 -------------------------------------------------------------------
 Cartesian Forces:  Max     0.031781131 RMS     0.015494901
 IRC-IRC-IRC-IRC-IRC-IRC-IRC-IRC-IRC-IRC-IRC-IRC-IRC-IRC-IRC-IRC-IRC-IRC
 Pt  9 Step number   1 out of a maximum of  20
 Modified Bulirsch-Stoer Extrapolation Cycles:
    EPS =    0.000010000000000
      PEZero:  N= 2 I= 1 D=  5.49D-04 Err=  1.40D-03
      PEZero:  N= 3 I= 2 D=  5.49D-04 Err=  9.30D-04
      PEZero:  N= 3 I= 1 D=  1.10D-03 Err=  6.62D-08
 Maximum DWI energy   std dev =  0.000016577 at pt    32
 Maximum DWI gradient std dev =  0.015475614 at pt     2
 Point Number:   1          Path Number:   2
   CHANGE IN THE REACTION COORDINATE =    0.21077
   NET REACTION COORDINATE UP TO THIS POINT =    0.21077
  # OF POINTS ALONG THE PATH =   9
  # OF STEPS =   1

 Calculating another point on the path.
 IRC-IRC-IRC-IRC-IRC-IRC-IRC-IRC-IRC-IRC-IRC-IRC-IRC-IRC-IRC-IRC-IRC-IRC
                          Input orientation:                          
 ---------------------------------------------------------------------
 Center     Atomic      Atomic             Coordinates (Angstroms)
 Number     Number       Type             X           Y           Z
 ---------------------------------------------------------------------
      1          6           0        0.136702    0.662093   -0.100053
      2          8           0       -0.123358   -0.578943    0.087896
      3          1           0       -0.737979    1.353281   -0.092752
      4          1           0        1.068084   -0.048434   -0.110907
 ---------------------------------------------------------------------
                    Distance matrix (angstroms):
                    1          2          3          4
     1  C    0.000000
     2  O    1.281845   0.000000
     3  H    1.114836   2.035652   0.000000
     4  H    1.171511   1.319278   2.286262   0.000000
 Symmetry turned off by external request.
 Stoichiometry    CH2O
 Framework group  C1[X(CH2O)]
 Deg. of freedom     6
 Full point group                 C1      NOp   1
 Rotational constants (GHZ):         246.1709974          39.3363648          33.9167162
 Standard basis: 6-311+G(2d,p) (5D, 7F)
    66 basis functions,   100 primitive gaussians,    70 cartesian basis functions
     8 alpha electrons        8 beta electrons
       nuclear repulsion energy        30.8938006107 Hartrees.
 NAtoms=    4 NActive=    4 NUniq=    4 SFac= 1.00D+00 NAtFMM=   60 NAOKFM=F Big=F
 Integral buffers will be    131072 words long.
 Raffenetti 2 integral format.
 Two-electron integral symmetry is turned off.
 R6APFD:  NTU= -4 IXU= 1 FactS= 1.050
 Nuclear repulsion after empirical dispersion term =       30.8937453012 Hartrees.
 One-electron integrals computed using PRISM.
 NBasis=    66 RedAO= T EigKep=  1.97D-03  NBF=    66
 NBsUse=    66 1.00D-06 EigRej= -1.00D+00 NBFU=    66
 Initial guess from the checkpoint file:  "e6_07_irc2.chk"
 B after Tr=     0.003564    0.005990   -0.001162
         Rot=    0.999998   -0.000223   -0.000263   -0.002041 Ang=  -0.24 deg.
 ExpMin= 4.38D-02 ExpMax= 8.59D+03 ExpMxC= 1.30D+03 IAcc=3 IRadAn=         5 AccDes= 0.00D+00
 Harris functional with IExCor= 3731 and IRadAn=       5 diagonalized for initial guess.
 HarFok:  IExCor= 3731 AccDes= 0.00D+00 IRadAn=         5 IDoV= 1 UseB2=F ITyADJ=14
 ICtDFT=  3500011 ScaDFX=  1.000000  1.000000  1.000000  1.000000
 FoFCou: FMM=F IPFlag=           0 FMFlag=      100000 FMFlg1=           0
         NFxFlg=           0 DoJE=T BraDBF=F KetDBF=T FulRan=T
         wScrn=  0.000000 ICntrl=       500 IOpCl=  0 I1Cent=   200000004 NGrid=           0
         NMat0=    1 NMatS0=      1 NMatT0=    0 NMatD0=    1 NMtDS0=    0 NMtDT0=    0
 Symmetry not used in FoFCou.
 Keep R1 ints in memory in canonical form, NReq=3339201.
 Requested convergence on RMS density matrix=1.00D-08 within 128 cycles.
 Requested convergence on MAX density matrix=1.00D-06.
 Requested convergence on             energy=1.00D-06.
 No special actions if energy rises.
 SCF Done:  E(RAPFD) =  -114.321151487     A.U. after   10 cycles
            NFock= 10  Conv=0.45D-08     -V/T= 2.0034
 DoSCS=F DFT=T ScalE2(SS,OS)=  1.000000  1.000000
 Range of M.O.s used for correlation:     1    66
 NBasis=    66 NAE=     8 NBE=     8 NFC=     0 NFV=     0
 NROrb=     66 NOA=     8 NOB=     8 NVA=    58 NVB=    58
 Symmetrizing basis deriv contribution to polar:
 IMax=3 JMax=2 DiffMx= 0.00D+00
 R6APFD:  NTU= -4 IXU= 1 FactS= 1.050
 Calling FoFJK, ICntrl=      2127 FMM=F ISym2X=0 I1Cent= 0 IOpClX= 0 NMat=1 NMatS=1 NMatT=0.
 -------------------------------------------------------------------
 Center     Atomic                   Forces (Hartrees/Bohr)
 Number     Number              X              Y              Z
 -------------------------------------------------------------------
      1        6           0.012201596   -0.062861899    0.006745683
      2        8          -0.045962693    0.001146560    0.004891177
      3        1           0.010249574    0.005405279   -0.001822379
      4        1           0.023511523    0.056310060   -0.009814481
 -------------------------------------------------------------------
 Cartesian Forces:  Max     0.062861899 RMS     0.029213780
 IRC-IRC-IRC-IRC-IRC-IRC-IRC-IRC-IRC-IRC-IRC-IRC-IRC-IRC-IRC-IRC-IRC-IRC
 Pt 10 Step number   1 out of a maximum of  20
 Modified Bulirsch-Stoer Extrapolation Cycles:
    EPS =    0.000010000000000
      PEZero:  N= 2 I= 1 D=  1.10D-03 Err=  2.27D-05
      PEZero:  N= 3 I= 2 D=  1.10D-03 Err=  1.51D-05
      PEZero:  N= 3 I= 1 D=  2.19D-03 Err=  4.35D-08
 Maximum DWI energy   std dev =  0.000041058 at pt    30
 Maximum DWI gradient std dev =  0.010896000 at pt    55
 Point Number:   2          Path Number:   2
   CHANGE IN THE REACTION COORDINATE =    0.21069
   NET REACTION COORDINATE UP TO THIS POINT =    0.42146
  # OF POINTS ALONG THE PATH =  10
  # OF STEPS =   1

 Calculating another point on the path.
 IRC-IRC-IRC-IRC-IRC-IRC-IRC-IRC-IRC-IRC-IRC-IRC-IRC-IRC-IRC-IRC-IRC-IRC
                          Input orientation:                          
 ---------------------------------------------------------------------
 Center     Atomic      Atomic             Coordinates (Angstroms)
 Number     Number       Type             X           Y           Z
 ---------------------------------------------------------------------
      1          6           0        0.138325    0.653056   -0.099069
      2          8           0       -0.128127   -0.578635    0.088379
      3          1           0       -0.720761    1.362379   -0.095815
      4          1           0        1.107254    0.045232   -0.127238
 ---------------------------------------------------------------------
                    Distance matrix (angstroms):
                    1          2          3          4
     1  C    0.000000
     2  O    1.274047   0.000000
     3  H    1.114082   2.037813   0.000000
     4  H    1.144144   1.400666   2.253331   0.000000
 Symmetry turned off by external request.
 Stoichiometry    CH2O
 Framework group  C1[X(CH2O)]
 Deg. of freedom     6
 Full point group                 C1      NOp   1
 Rotational constants (GHZ):         241.0950270          39.5776795          33.9968280
 Standard basis: 6-311+G(2d,p) (5D, 7F)
    66 basis functions,   100 primitive gaussians,    70 cartesian basis functions
     8 alpha electrons        8 beta electrons
       nuclear repulsion energy        30.8965596186 Hartrees.
 NAtoms=    4 NActive=    4 NUniq=    4 SFac= 1.00D+00 NAtFMM=   60 NAOKFM=F Big=F
 Integral buffers will be    131072 words long.
 Raffenetti 2 integral format.
 Two-electron integral symmetry is turned off.
 R6APFD:  NTU= -4 IXU= 1 FactS= 1.050
 Nuclear repulsion after empirical dispersion term =       30.8965178171 Hartrees.
 One-electron integrals computed using PRISM.
 NBasis=    66 RedAO= T EigKep=  1.90D-03  NBF=    66
 NBsUse=    66 1.00D-06 EigRej= -1.00D+00 NBFU=    66
 Initial guess from the checkpoint file:  "e6_07_irc2.chk"
 B after Tr=     0.003611    0.005943   -0.001160
         Rot=    0.999998   -0.000216   -0.000254   -0.001975 Ang=  -0.23 deg.
 ExpMin= 4.38D-02 ExpMax= 8.59D+03 ExpMxC= 1.30D+03 IAcc=3 IRadAn=         5 AccDes= 0.00D+00
 Harris functional with IExCor= 3731 and IRadAn=       5 diagonalized for initial guess.
 HarFok:  IExCor= 3731 AccDes= 0.00D+00 IRadAn=         5 IDoV= 1 UseB2=F ITyADJ=14
 ICtDFT=  3500011 ScaDFX=  1.000000  1.000000  1.000000  1.000000
 FoFCou: FMM=F IPFlag=           0 FMFlag=      100000 FMFlg1=           0
         NFxFlg=           0 DoJE=T BraDBF=F KetDBF=T FulRan=T
         wScrn=  0.000000 ICntrl=       500 IOpCl=  0 I1Cent=   200000004 NGrid=           0
         NMat0=    1 NMatS0=      1 NMatT0=    0 NMatD0=    1 NMtDS0=    0 NMtDT0=    0
 Symmetry not used in FoFCou.
 Keep R1 ints in memory in canonical form, NReq=3339201.
 Requested convergence on RMS density matrix=1.00D-08 within 128 cycles.
 Requested convergence on MAX density matrix=1.00D-06.
 Requested convergence on             energy=1.00D-06.
 No special actions if energy rises.
 SCF Done:  E(RAPFD) =  -114.337448210     A.U. after   10 cycles
            NFock= 10  Conv=0.32D-08     -V/T= 2.0035
 DoSCS=F DFT=T ScalE2(SS,OS)=  1.000000  1.000000
 Range of M.O.s used for correlation:     1    66
 NBasis=    66 NAE=     8 NBE=     8 NFC=     0 NFV=     0
 NROrb=     66 NOA=     8 NOB=     8 NVA=    58 NVB=    58
 Symmetrizing basis deriv contribution to polar:
 IMax=3 JMax=2 DiffMx= 0.00D+00
 R6APFD:  NTU= -4 IXU= 1 FactS= 1.050
 Calling FoFJK, ICntrl=      2127 FMM=F ISym2X=0 I1Cent= 0 IOpClX= 0 NMat=1 NMatS=1 NMatT=0.
 -------------------------------------------------------------------
 Center     Atomic                   Forces (Hartrees/Bohr)
 Number     Number              X              Y              Z
 -------------------------------------------------------------------
      1        6           0.014455556   -0.086565086    0.009544511
      2        8          -0.057561282    0.006318751    0.005497983
      3        1           0.014194497    0.006934403   -0.002451778
      4        1           0.028911228    0.073311932   -0.012590716
 -------------------------------------------------------------------
 Cartesian Forces:  Max     0.086565086 RMS     0.038515837
 IRC-IRC-IRC-IRC-IRC-IRC-IRC-IRC-IRC-IRC-IRC-IRC-IRC-IRC-IRC-IRC-IRC-IRC
 Pt 11 Step number   1 out of a maximum of  20
 Modified Bulirsch-Stoer Extrapolation Cycles:
    EPS =    0.000010000000000
      PEZero:  N= 2 I= 1 D=  1.10D-03 Err=  2.52D-05
      PEZero:  N= 3 I= 2 D=  1.10D-03 Err=  1.68D-05
      PEZero:  N= 3 I= 1 D=  2.19D-03 Err=  5.57D-08
 Maximum DWI energy   std dev =  0.000129092 at pt    71
 Maximum DWI gradient std dev =  0.009656746 at pt    38
 Point Number:   3          Path Number:   2
   CHANGE IN THE REACTION COORDINATE =    0.21071
   NET REACTION COORDINATE UP TO THIS POINT =    0.63216
  # OF POINTS ALONG THE PATH =  11
  # OF STEPS =   1

 Calculating another point on the path.
 IRC-IRC-IRC-IRC-IRC-IRC-IRC-IRC-IRC-IRC-IRC-IRC-IRC-IRC-IRC-IRC-IRC-IRC
                          Input orientation:                          
 ---------------------------------------------------------------------
 Center     Atomic      Atomic             Coordinates (Angstroms)
 Number     Number       Type             X           Y           Z
 ---------------------------------------------------------------------
      1          6           0        0.139784    0.643462   -0.097996
      2          8           0       -0.132703   -0.577920    0.088789
      3          1           0       -0.702065    1.371320   -0.099019
      4          1           0        1.143839    0.139204   -0.143325
 ---------------------------------------------------------------------
                    Distance matrix (angstroms):
                    1          2          3          4
     1  C    0.000000
     2  O    1.265271   0.000000
     3  H    1.112874   2.039358   0.000000
     4  H    1.124481   1.482465   2.219782   0.000000
 Symmetry turned off by external request.
 Stoichiometry    CH2O
 Framework group  C1[X(CH2O)]
 Deg. of freedom     6
 Full point group                 C1      NOp   1
 Rotational constants (GHZ):         237.6263572          39.7870979          34.0807664
 Standard basis: 6-311+G(2d,p) (5D, 7F)
    66 basis functions,   100 primitive gaussians,    70 cartesian basis functions
     8 alpha electrons        8 beta electrons
       nuclear repulsion energy        30.9216753601 Hartrees.
 NAtoms=    4 NActive=    4 NUniq=    4 SFac= 1.00D+00 NAtFMM=   60 NAOKFM=F Big=F
 Integral buffers will be    131072 words long.
 Raffenetti 2 integral format.
 Two-electron integral symmetry is turned off.
 R6APFD:  NTU= -4 IXU= 1 FactS= 1.050
 Nuclear repulsion after empirical dispersion term =       30.9216482100 Hartrees.
 One-electron integrals computed using PRISM.
 NBasis=    66 RedAO= T EigKep=  1.83D-03  NBF=    66
 NBsUse=    66 1.00D-06 EigRej= -1.00D+00 NBFU=    66
 Initial guess from the checkpoint file:  "e6_07_irc2.chk"
 B after Tr=     0.003562    0.005940   -0.001154
         Rot=    0.999998   -0.000211   -0.000248   -0.001926 Ang=  -0.22 deg.
 ExpMin= 4.38D-02 ExpMax= 8.59D+03 ExpMxC= 1.30D+03 IAcc=3 IRadAn=         5 AccDes= 0.00D+00
 Harris functional with IExCor= 3731 and IRadAn=       5 diagonalized for initial guess.
 HarFok:  IExCor= 3731 AccDes= 0.00D+00 IRadAn=         5 IDoV= 1 UseB2=F ITyADJ=14
 ICtDFT=  3500011 ScaDFX=  1.000000  1.000000  1.000000  1.000000
 FoFCou: FMM=F IPFlag=           0 FMFlag=      100000 FMFlg1=           0
         NFxFlg=           0 DoJE=T BraDBF=F KetDBF=T FulRan=T
         wScrn=  0.000000 ICntrl=       500 IOpCl=  0 I1Cent=   200000004 NGrid=           0
         NMat0=    1 NMatS0=      1 NMatT0=    0 NMatD0=    1 NMtDS0=    0 NMtDT0=    0
 Symmetry not used in FoFCou.
 Keep R1 ints in memory in canonical form, NReq=3339201.
 Requested convergence on RMS density matrix=1.00D-08 within 128 cycles.
 Requested convergence on MAX density matrix=1.00D-06.
 Requested convergence on             energy=1.00D-06.
 No special actions if energy rises.
 SCF Done:  E(RAPFD) =  -114.356658848     A.U. after   10 cycles
            NFock= 10  Conv=0.21D-08     -V/T= 2.0035
 DoSCS=F DFT=T ScalE2(SS,OS)=  1.000000  1.000000
 Range of M.O.s used for correlation:     1    66
 NBasis=    66 NAE=     8 NBE=     8 NFC=     0 NFV=     0
 NROrb=     66 NOA=     8 NOB=     8 NVA=    58 NVB=    58
 Symmetrizing basis deriv contribution to polar:
 IMax=3 JMax=2 DiffMx= 0.00D+00
 R6APFD:  NTU= -4 IXU= 1 FactS= 1.050
 Calling FoFJK, ICntrl=      2127 FMM=F ISym2X=0 I1Cent= 0 IOpClX= 0 NMat=1 NMatS=1 NMatT=0.
 -------------------------------------------------------------------
 Center     Atomic                   Forces (Hartrees/Bohr)
 Number     Number              X              Y              Z
 -------------------------------------------------------------------
      1        6           0.014598791   -0.100301664    0.011293795
      2        8          -0.060283261    0.012491478    0.005003277
      3        1           0.016582560    0.007442877   -0.002779319
      4        1           0.029101909    0.080367310   -0.013517753
 -------------------------------------------------------------------
 Cartesian Forces:  Max     0.100301664 RMS     0.042859166
 IRC-IRC-IRC-IRC-IRC-IRC-IRC-IRC-IRC-IRC-IRC-IRC-IRC-IRC-IRC-IRC-IRC-IRC
 Pt 12 Step number   1 out of a maximum of  20
 Modified Bulirsch-Stoer Extrapolation Cycles:
    EPS =    0.000010000000000
      PEZero:  N= 2 I= 1 D=  1.10D-03 Err=  3.35D-05
      PEZero:  N= 3 I= 2 D=  1.10D-03 Err=  2.23D-05
      PEZero:  N= 3 I= 1 D=  2.20D-03 Err=  7.50D-08
 Maximum DWI energy   std dev =  0.000153383 at pt    35
 Maximum DWI gradient std dev =  0.009374086 at pt    29
 Point Number:   4          Path Number:   2
   CHANGE IN THE REACTION COORDINATE =    0.21071
   NET REACTION COORDINATE UP TO THIS POINT =    0.84287
  # OF POINTS ALONG THE PATH =  12
  # OF STEPS =   1

 Calculating another point on the path.
 IRC-IRC-IRC-IRC-IRC-IRC-IRC-IRC-IRC-IRC-IRC-IRC-IRC-IRC-IRC-IRC-IRC-IRC
                          Input orientation:                          
 ---------------------------------------------------------------------
 Center     Atomic      Atomic             Coordinates (Angstroms)
 Number     Number       Type             X           Y           Z
 ---------------------------------------------------------------------
      1          6           0        0.141152    0.633287   -0.096838
      2          8           0       -0.137081   -0.576783    0.089123
      3          1           0       -0.682004    1.380061   -0.102348
      4          1           0        1.176989    0.233611   -0.159091
 ---------------------------------------------------------------------
                    Distance matrix (angstroms):
                    1          2          3          4
     1  C    0.000000
     2  O    1.255494   0.000000
     3  H    1.111435   2.040304   0.000000
     4  H    1.112014   1.563691   2.184816   0.000000
 Symmetry turned off by external request.
 Stoichiometry    CH2O
 Framework group  C1[X(CH2O)]
 Deg. of freedom     6
 Full point group                 C1      NOp   1
 Rotational constants (GHZ):         235.9080276          39.9629064          34.1738446
 Standard basis: 6-311+G(2d,p) (5D, 7F)
    66 basis functions,   100 primitive gaussians,    70 cartesian basis functions
     8 alpha electrons        8 beta electrons
       nuclear repulsion energy        30.9678762358 Hartrees.
 NAtoms=    4 NActive=    4 NUniq=    4 SFac= 1.00D+00 NAtFMM=   60 NAOKFM=F Big=F
 Integral buffers will be    131072 words long.
 Raffenetti 2 integral format.
 Two-electron integral symmetry is turned off.
 R6APFD:  NTU= -4 IXU= 1 FactS= 1.050
 Nuclear repulsion after empirical dispersion term =       30.9678692633 Hartrees.
 One-electron integrals computed using PRISM.
 NBasis=    66 RedAO= T EigKep=  1.75D-03  NBF=    66
 NBsUse=    66 1.00D-06 EigRej= -1.00D+00 NBFU=    66
 Initial guess from the checkpoint file:  "e6_07_irc2.chk"
 B after Tr=     0.003459    0.005943   -0.001143
         Rot=    0.999998   -0.000207   -0.000244   -0.001894 Ang=  -0.22 deg.
 ExpMin= 4.38D-02 ExpMax= 8.59D+03 ExpMxC= 1.30D+03 IAcc=3 IRadAn=         5 AccDes= 0.00D+00
 Harris functional with IExCor= 3731 and IRadAn=       5 diagonalized for initial guess.
 HarFok:  IExCor= 3731 AccDes= 0.00D+00 IRadAn=         5 IDoV= 1 UseB2=F ITyADJ=14
 ICtDFT=  3500011 ScaDFX=  1.000000  1.000000  1.000000  1.000000
 FoFCou: FMM=F IPFlag=           0 FMFlag=      100000 FMFlg1=           0
         NFxFlg=           0 DoJE=T BraDBF=F KetDBF=T FulRan=T
         wScrn=  0.000000 ICntrl=       500 IOpCl=  0 I1Cent=   200000004 NGrid=           0
         NMat0=    1 NMatS0=      1 NMatT0=    0 NMatD0=    1 NMtDS0=    0 NMtDT0=    0
 Symmetry not used in FoFCou.
 Keep R1 ints in memory in canonical form, NReq=3339201.
 Requested convergence on RMS density matrix=1.00D-08 within 128 cycles.
 Requested convergence on MAX density matrix=1.00D-06.
 Requested convergence on             energy=1.00D-06.
 No special actions if energy rises.
 SCF Done:  E(RAPFD) =  -114.376469343     A.U. after    9 cycles
            NFock=  9  Conv=0.89D-08     -V/T= 2.0036
 DoSCS=F DFT=T ScalE2(SS,OS)=  1.000000  1.000000
 Range of M.O.s used for correlation:     1    66
 NBasis=    66 NAE=     8 NBE=     8 NFC=     0 NFV=     0
 NROrb=     66 NOA=     8 NOB=     8 NVA=    58 NVB=    58
 Symmetrizing basis deriv contribution to polar:
 IMax=3 JMax=2 DiffMx= 0.00D+00
 R6APFD:  NTU= -4 IXU= 1 FactS= 1.050
 Calling FoFJK, ICntrl=      2127 FMM=F ISym2X=0 I1Cent= 0 IOpClX= 0 NMat=1 NMatS=1 NMatT=0.
 -------------------------------------------------------------------
 Center     Atomic                   Forces (Hartrees/Bohr)
 Number     Number              X              Y              Z
 -------------------------------------------------------------------
      1        6           0.014381110   -0.104148313    0.011812444
      2        8          -0.056603960    0.017639032    0.003938441
      3        1           0.017229435    0.007170247   -0.002815471
      4        1           0.024993416    0.079339034   -0.012935413
 -------------------------------------------------------------------
 Cartesian Forces:  Max     0.104148313 RMS     0.042979401
 IRC-IRC-IRC-IRC-IRC-IRC-IRC-IRC-IRC-IRC-IRC-IRC-IRC-IRC-IRC-IRC-IRC-IRC
 Reaction path inflection point has been passed.
   Previous lowest Hessian eigenvalue=   -0.0390160256
   Current lowest Hessian eigenvalue =    0.0063603583
 Pt 13 Step number   1 out of a maximum of  20
 Modified Bulirsch-Stoer Extrapolation Cycles:
    EPS =    0.000010000000000
      PEZero:  N= 2 I= 1 D=  1.10D-03 Err=  4.82D-05
      PEZero:  N= 3 I= 2 D=  1.10D-03 Err=  3.21D-05
      PEZero:  N= 3 I= 1 D=  2.20D-03 Err=  1.11D-07
 Maximum DWI energy   std dev =  0.000132713 at pt    35
 Maximum DWI gradient std dev =  0.010003198 at pt    29
 Point Number:   5          Path Number:   2
   CHANGE IN THE REACTION COORDINATE =    0.21070
   NET REACTION COORDINATE UP TO THIS POINT =    1.05358
  # OF POINTS ALONG THE PATH =  13
  # OF STEPS =   1

 Calculating another point on the path.
 IRC-IRC-IRC-IRC-IRC-IRC-IRC-IRC-IRC-IRC-IRC-IRC-IRC-IRC-IRC-IRC-IRC-IRC
                          Input orientation:                          
 ---------------------------------------------------------------------
 Center     Atomic      Atomic             Coordinates (Angstroms)
 Number     Number       Type             X           Y           Z
 ---------------------------------------------------------------------
      1          6           0        0.142591    0.622549   -0.095615
      2          8           0       -0.141279   -0.575254    0.089386
      3          1           0       -0.660813    1.388593   -0.105774
      4          1           0        1.205325    0.328716   -0.174419
 ---------------------------------------------------------------------
                    Distance matrix (angstroms):
                    1          2          3          4
     1  C    0.000000
     2  O    1.244804   0.000000
     3  H    1.110129   2.040759   0.000000
     4  H    1.105420   1.643198   2.147214   0.000000
 Symmetry turned off by external request.
 Stoichiometry    CH2O
 Framework group  C1[X(CH2O)]
 Deg. of freedom     6
 Full point group                 C1      NOp   1
 Rotational constants (GHZ):         236.2267303          40.0981892          34.2794423
 Standard basis: 6-311+G(2d,p) (5D, 7F)
    66 basis functions,   100 primitive gaussians,    70 cartesian basis functions
     8 alpha electrons        8 beta electrons
       nuclear repulsion energy        31.0347828432 Hartrees.
 NAtoms=    4 NActive=    4 NUniq=    4 SFac= 1.00D+00 NAtFMM=   60 NAOKFM=F Big=F
 Integral buffers will be    131072 words long.
 Raffenetti 2 integral format.
 Two-electron integral symmetry is turned off.
 R6APFD:  NTU= -4 IXU= 1 FactS= 1.050
 Nuclear repulsion after empirical dispersion term =       31.0347828396 Hartrees.
 One-electron integrals computed using PRISM.
 NBasis=    66 RedAO= T EigKep=  1.68D-03  NBF=    66
 NBsUse=    66 1.00D-06 EigRej= -1.00D+00 NBFU=    66
 Initial guess from the checkpoint file:  "e6_07_irc2.chk"
 B after Tr=     0.003267    0.005961   -0.001124
         Rot=    0.999998   -0.000207   -0.000243   -0.001893 Ang=  -0.22 deg.
 ExpMin= 4.38D-02 ExpMax= 8.59D+03 ExpMxC= 1.30D+03 IAcc=3 IRadAn=         5 AccDes= 0.00D+00
 Harris functional with IExCor= 3731 and IRadAn=       5 diagonalized for initial guess.
 HarFok:  IExCor= 3731 AccDes= 0.00D+00 IRadAn=         5 IDoV= 1 UseB2=F ITyADJ=14
 ICtDFT=  3500011 ScaDFX=  1.000000  1.000000  1.000000  1.000000
 FoFCou: FMM=F IPFlag=           0 FMFlag=      100000 FMFlg1=           0
         NFxFlg=           0 DoJE=T BraDBF=F KetDBF=T FulRan=T
         wScrn=  0.000000 ICntrl=       500 IOpCl=  0 I1Cent=   200000004 NGrid=           0
         NMat0=    1 NMatS0=      1 NMatT0=    0 NMatD0=    1 NMtDS0=    0 NMtDT0=    0
 Symmetry not used in FoFCou.
 Keep R1 ints in memory in canonical form, NReq=3339201.
 Requested convergence on RMS density matrix=1.00D-08 within 128 cycles.
 Requested convergence on MAX density matrix=1.00D-06.
 Requested convergence on             energy=1.00D-06.
 No special actions if energy rises.
 SCF Done:  E(RAPFD) =  -114.395156630     A.U. after    9 cycles
            NFock=  9  Conv=0.33D-08     -V/T= 2.0036
 DoSCS=F DFT=T ScalE2(SS,OS)=  1.000000  1.000000
 Range of M.O.s used for correlation:     1    66
 NBasis=    66 NAE=     8 NBE=     8 NFC=     0 NFV=     0
 NROrb=     66 NOA=     8 NOB=     8 NVA=    58 NVB=    58
 Symmetrizing basis deriv contribution to polar:
 IMax=3 JMax=2 DiffMx= 0.00D+00
[...]
 HarFok:  IExCor= 3731 AccDes= 0.00D+00 IRadAn=         5 IDoV= 1 UseB2=F ITyADJ=14
 ICtDFT=  3500011 ScaDFX=  1.000000  1.000000  1.000000  1.000000
 FoFCou: FMM=F IPFlag=           0 FMFlag=      100000 FMFlg1=           0
         NFxFlg=           0 DoJE=T BraDBF=F KetDBF=T FulRan=T
         wScrn=  0.000000 ICntrl=       500 IOpCl=  0 I1Cent=   200000004 NGrid=           0
         NMat0=    1 NMatS0=      1 NMatT0=    0 NMatD0=    1 NMtDS0=    0 NMtDT0=    0
 Symmetry not used in FoFCou.
 Keep R1 ints in memory in canonical form, NReq=3339201.
 Requested convergence on RMS density matrix=1.00D-08 within 128 cycles.
 Requested convergence on MAX density matrix=1.00D-06.
 Requested convergence on             energy=1.00D-06.
 No special actions if energy rises.
 SCF Done:  E(RAPFD) =  -114.434836403     A.U. after    9 cycles
            NFock=  9  Conv=0.20D-08     -V/T= 2.0034
 DoSCS=F DFT=T ScalE2(SS,OS)=  1.000000  1.000000
 Range of M.O.s used for correlation:     1    66
 NBasis=    66 NAE=     8 NBE=     8 NFC=     0 NFV=     0
 NROrb=     66 NOA=     8 NOB=     8 NVA=    58 NVB=    58
 Symmetrizing basis deriv contribution to polar:
 IMax=3 JMax=2 DiffMx= 0.00D+00
 R6APFD:  NTU= -4 IXU= 1 FactS= 1.050
 Calling FoFJK, ICntrl=      2127 FMM=F ISym2X=0 I1Cent= 0 IOpClX= 0 NMat=1 NMatS=1 NMatT=0.
 -------------------------------------------------------------------
 Center     Atomic                   Forces (Hartrees/Bohr)
 Number     Number              X              Y              Z
 -------------------------------------------------------------------
      1        6           0.017007949   -0.045772972    0.004022620
      2        8          -0.023656221    0.009793178    0.001334145
      3        1           0.007250507    0.001729499   -0.001020867
      4        1          -0.000602235    0.034250295   -0.004335897
 -------------------------------------------------------------------
 Cartesian Forces:  Max     0.045772972 RMS     0.018944587
 IRC-IRC-IRC-IRC-IRC-IRC-IRC-IRC-IRC-IRC-IRC-IRC-IRC-IRC-IRC-IRC-IRC-IRC
 Pt 17 Step number   1 out of a maximum of  20
 Modified Bulirsch-Stoer Extrapolation Cycles:
    EPS =    0.000010000000000
      PEZero:  N= 2 I= 1 D=  1.10D-03 Err=  7.01D-05
      PEZero:  N= 3 I= 2 D=  1.10D-03 Err=  4.65D-05
      PEZero:  N= 3 I= 1 D=  2.20D-03 Err=  3.69D-07
 Maximum DWI energy   std dev =  0.000025224 at pt    35
 Maximum DWI gradient std dev =  0.018154050 at pt    30
 Point Number:   9          Path Number:   2
   CHANGE IN THE REACTION COORDINATE =    0.21064
   NET REACTION COORDINATE UP TO THIS POINT =    1.89626
  # OF POINTS ALONG THE PATH =  17
  # OF STEPS =   1

 Calculating another point on the path.
 IRC-IRC-IRC-IRC-IRC-IRC-IRC-IRC-IRC-IRC-IRC-IRC-IRC-IRC-IRC-IRC-IRC-IRC
                          Input orientation:                          
 ---------------------------------------------------------------------
 Center     Atomic      Atomic             Coordinates (Angstroms)
 Number     Number       Type             X           Y           Z
 ---------------------------------------------------------------------
      1          6           0        0.154459    0.578185   -0.091211
      2          8           0       -0.158222   -0.567998    0.090311
      3          1           0       -0.571958    1.412991   -0.118689
      4          1           0        1.244685    0.718820   -0.228869
 ---------------------------------------------------------------------
                    Distance matrix (angstroms):
                    1          2          3          4
     1  C    0.000000
     2  O    1.201855   0.000000
     3  H    1.106950   2.034497   0.000000
     4  H    1.107845   1.930266   1.947871   0.000000
 Symmetry turned off by external request.
 Stoichiometry    CH2O
 Framework group  C1[X(CH2O)]
 Deg. of freedom     6
 Full point group                 C1      NOp   1
 Rotational constants (GHZ):         265.8828274          39.8592510          34.6628453
 Standard basis: 6-311+G(2d,p) (5D, 7F)
    66 basis functions,   100 primitive gaussians,    70 cartesian basis functions
     8 alpha electrons        8 beta electrons
       nuclear repulsion energy        31.4143618447 Hartrees.
 NAtoms=    4 NActive=    4 NUniq=    4 SFac= 1.00D+00 NAtFMM=   60 NAOKFM=F Big=F
 Integral buffers will be    131072 words long.
 Raffenetti 2 integral format.
 Two-electron integral symmetry is turned off.
 R6APFD:  NTU= -4 IXU= 1 FactS= 1.050
 Nuclear repulsion after empirical dispersion term =       31.4143618447 Hartrees.
 One-electron integrals computed using PRISM.
 NBasis=    66 RedAO= T EigKep=  1.61D-03  NBF=    66
 NBsUse=    66 1.00D-06 EigRej= -1.00D+00 NBFU=    66
 Initial guess from the checkpoint file:  "e6_07_irc2.chk"
 B after Tr=     0.001662    0.005846   -0.000934
         Rot=    0.999997   -0.000257   -0.000302   -0.002349 Ang=  -0.27 deg.
 ExpMin= 4.38D-02 ExpMax= 8.59D+03 ExpMxC= 1.30D+03 IAcc=3 IRadAn=         5 AccDes= 0.00D+00
 Harris functional with IExCor= 3731 and IRadAn=       5 diagonalized for initial guess.
 HarFok:  IExCor= 3731 AccDes= 0.00D+00 IRadAn=         5 IDoV= 1 UseB2=F ITyADJ=14
 ICtDFT=  3500011 ScaDFX=  1.000000  1.000000  1.000000  1.000000
 FoFCou: FMM=F IPFlag=           0 FMFlag=      100000 FMFlg1=           0
         NFxFlg=           0 DoJE=T BraDBF=F KetDBF=T FulRan=T
         wScrn=  0.000000 ICntrl=       500 IOpCl=  0 I1Cent=   200000004 NGrid=           0
         NMat0=    1 NMatS0=      1 NMatT0=    0 NMatD0=    1 NMtDS0=    0 NMtDT0=    0
 Symmetry not used in FoFCou.
 Keep R1 ints in memory in canonical form, NReq=3339201.
 Requested convergence on RMS density matrix=1.00D-08 within 128 cycles.
 Requested convergence on MAX density matrix=1.00D-06.
 Requested convergence on             energy=1.00D-06.
 No special actions if energy rises.
 SCF Done:  E(RAPFD) =  -114.441119876     A.U. after    9 cycles
            NFock=  9  Conv=0.16D-08     -V/T= 2.0033
 DoSCS=F DFT=T ScalE2(SS,OS)=  1.000000  1.000000
 Range of M.O.s used for correlation:     1    66
 NBasis=    66 NAE=     8 NBE=     8 NFC=     0 NFV=     0
 NROrb=     66 NOA=     8 NOB=     8 NVA=    58 NVB=    58
 Symmetrizing basis deriv contribution to polar:
 IMax=3 JMax=2 DiffMx= 0.00D+00
 R6APFD:  NTU= -4 IXU= 1 FactS= 1.050
 Calling FoFJK, ICntrl=      2127 FMM=F ISym2X=0 I1Cent= 0 IOpClX= 0 NMat=1 NMatS=1 NMatT=0.
 -------------------------------------------------------------------
 Center     Atomic                   Forces (Hartrees/Bohr)
 Number     Number              X              Y              Z
 -------------------------------------------------------------------
      1        6           0.015143189   -0.022496283    0.001234880
      2        8          -0.015175697    0.003350916    0.001232209
      3        1           0.002712582    0.000299061   -0.000338380
      4        1          -0.002680074    0.018846306   -0.002128710
 -------------------------------------------------------------------
 Cartesian Forces:  Max     0.022496283 RMS     0.010623998
 IRC-IRC-IRC-IRC-IRC-IRC-IRC-IRC-IRC-IRC-IRC-IRC-IRC-IRC-IRC-IRC-IRC-IRC
 Pt 18 Step number   1 out of a maximum of  20
 Modified Bulirsch-Stoer Extrapolation Cycles:
    EPS =    0.000010000000000
      PEZero:  N= 2 I= 1 D=  1.10D-03 Err=  8.52D-05
      PEZero:  N= 3 I= 2 D=  1.10D-03 Err=  5.68D-05
      PEZero:  N= 3 I= 1 D=  2.19D-03 Err=  2.74D-07
 Maximum DWI energy   std dev =  0.000012749 at pt    35
 Maximum DWI gradient std dev =  0.028330801 at pt    61
 Point Number:  10          Path Number:   2
   CHANGE IN THE REACTION COORDINATE =    0.21054
   NET REACTION COORDINATE UP TO THIS POINT =    2.10680
  # OF POINTS ALONG THE PATH =  18
  # OF STEPS =   1

 Calculating another point on the path.
 IRC-IRC-IRC-IRC-IRC-IRC-IRC-IRC-IRC-IRC-IRC-IRC-IRC-IRC-IRC-IRC-IRC-IRC
                          Input orientation:                          
 ---------------------------------------------------------------------
 Center     Atomic      Atomic             Coordinates (Angstroms)
 Number     Number       Type             X           Y           Z
 ---------------------------------------------------------------------
      1          6           0        0.162432    0.570126   -0.091046
      2          8           0       -0.164448   -0.567717    0.090957
      3          1           0       -0.557569    1.408513   -0.119711
      4          1           0        1.235160    0.817540   -0.240519
 ---------------------------------------------------------------------
                    Distance matrix (angstroms):
                    1          2          3          4
     1  C    0.000000
     2  O    1.197774   0.000000
     3  H    1.105494   2.025935   0.000000
     4  H    1.110991   1.996927   1.891487   0.000000
 Symmetry turned off by external request.
 Stoichiometry    CH2O
 Framework group  C1[X(CH2O)]
 Deg. of freedom     6
 Full point group                 C1      NOp   1
 Rotational constants (GHZ):         280.4351646          39.3866716          34.5361276
 Standard basis: 6-311+G(2d,p) (5D, 7F)
    66 basis functions,   100 primitive gaussians,    70 cartesian basis functions
     8 alpha electrons        8 beta electrons
       nuclear repulsion energy        31.4257183854 Hartrees.
 NAtoms=    4 NActive=    4 NUniq=    4 SFac= 1.00D+00 NAtFMM=   60 NAOKFM=F Big=F
 Integral buffers will be    131072 words long.
 Raffenetti 2 integral format.
 Two-electron integral symmetry is turned off.
 R6APFD:  NTU= -4 IXU= 1 FactS= 1.050
 Nuclear repulsion after empirical dispersion term =       31.4257183854 Hartrees.
 One-electron integrals computed using PRISM.
 NBasis=    66 RedAO= T EigKep=  1.60D-03  NBF=    66
 NBsUse=    66 1.00D-06 EigRej= -1.00D+00 NBFU=    66
 Initial guess from the checkpoint file:  "e6_07_irc2.chk"
 B after Tr=     0.000980    0.005478   -0.000813
         Rot=    0.999997   -0.000274   -0.000322   -0.002505 Ang=  -0.29 deg.
 ExpMin= 4.38D-02 ExpMax= 8.59D+03 ExpMxC= 1.30D+03 IAcc=3 IRadAn=         5 AccDes= 0.00D+00
 Harris functional with IExCor= 3731 and IRadAn=       5 diagonalized for initial guess.
 HarFok:  IExCor= 3731 AccDes= 0.00D+00 IRadAn=         5 IDoV= 1 UseB2=F ITyADJ=14
 ICtDFT=  3500011 ScaDFX=  1.000000  1.000000  1.000000  1.000000
 FoFCou: FMM=F IPFlag=           0 FMFlag=      100000 FMFlg1=           0
         NFxFlg=           0 DoJE=T BraDBF=F KetDBF=T FulRan=T
         wScrn=  0.000000 ICntrl=       500 IOpCl=  0 I1Cent=   200000004 NGrid=           0
         NMat0=    1 NMatS0=      1 NMatT0=    0 NMatD0=    1 NMtDS0=    0 NMtDT0=    0
 Symmetry not used in FoFCou.
 Keep R1 ints in memory in canonical form, NReq=3339201.
 Requested convergence on RMS density matrix=1.00D-08 within 128 cycles.
 Requested convergence on MAX density matrix=1.00D-06.
 Requested convergence on             energy=1.00D-06.
 No special actions if energy rises.
 SCF Done:  E(RAPFD) =  -114.443812460     A.U. after    9 cycles
            NFock=  9  Conv=0.10D-08     -V/T= 2.0033
 DoSCS=F DFT=T ScalE2(SS,OS)=  1.000000  1.000000
 Range of M.O.s used for correlation:     1    66
 NBasis=    66 NAE=     8 NBE=     8 NFC=     0 NFV=     0
 NROrb=     66 NOA=     8 NOB=     8 NVA=    58 NVB=    58
 Symmetrizing basis deriv contribution to polar:
 IMax=3 JMax=2 DiffMx= 0.00D+00
 R6APFD:  NTU= -4 IXU= 1 FactS= 1.050
 Calling FoFJK, ICntrl=      2127 FMM=F ISym2X=0 I1Cent= 0 IOpClX= 0 NMat=1 NMatS=1 NMatT=0.
 -------------------------------------------------------------------
 Center     Atomic                   Forces (Hartrees/Bohr)
 Number     Number              X              Y              Z
 -------------------------------------------------------------------
      1        6           0.008553145   -0.005172099   -0.000272113
      2        8          -0.004748886    0.001309727    0.000352066
      3        1          -0.001716287    0.000149004    0.000168523
      4        1          -0.002087972    0.003713368   -0.000248476
 -------------------------------------------------------------------
 Cartesian Forces:  Max     0.008553145 RMS     0.003483041
 IRC-IRC-IRC-IRC-IRC-IRC-IRC-IRC-IRC-IRC-IRC-IRC-IRC-IRC-IRC-IRC-IRC-IRC
 Pt 19 Step number   1 out of a maximum of  20
 Modified Bulirsch-Stoer Extrapolation Cycles:
    EPS =    0.000010000000000
      PEZero:  N= 2 I= 1 D=  1.10D-03 Err=  1.85D-04
      PEZero:  N= 3 I= 2 D=  1.10D-03 Err=  1.24D-04
      PEZero:  N= 3 I= 1 D=  2.19D-03 Err=  1.77D-06
 Maximum DWI energy   std dev =  0.000001329 at pt    30
 Maximum DWI gradient std dev =  0.079910298 at pt    33
 Point Number:  11          Path Number:   2
   CHANGE IN THE REACTION COORDINATE =    0.20950
   NET REACTION COORDINATE UP TO THIS POINT =    2.31630
  # OF POINTS ALONG THE PATH =  19
  # OF STEPS =   1

 Calculating another point on the path.
 PES minimum detected within a second-order step.
 Calculation of REVERSE path complete.
 Reaction path calculation complete.
 
 Energies reported relative to the TS energy of        -114.306486
 --------------------------------------------------------------------------
    Summary of reaction path following
 --------------------------------------------------------------------------
                        Energy    RxCoord
   1                   -0.13734  -2.31630
   2                   -0.13464  -2.10680
   3                   -0.12836  -1.89626
   4                   -0.11844  -1.68562
   5                   -0.10507  -1.47495
   6                   -0.08868  -1.26427
   7                   -0.06999  -1.05358
   8                   -0.05018  -0.84287
   9                   -0.03097  -0.63216
  10                   -0.01467  -0.42146
  11                   -0.00376  -0.21077
  12                    0.00000   0.00000
  13                   -0.00340   0.21074
  14                   -0.01191   0.42131
  15                   -0.02250   0.63193
  16                   -0.03279   0.84262
  17                   -0.04144   1.05328
  18                   -0.04782   1.26382
  19                   -0.05168   1.47425
  20                   -0.05304   1.67847
 --------------------------------------------------------------------------
 
 Total number of points:                   19
 Total number of gradient calculations:    19
 Total number of Hessian calculations:      0
 IRC-IRC-IRC-IRC-IRC-IRC-IRC-IRC-IRC-IRC-IRC-IRC-IRC-IRC-IRC-IRC-IRC-IRC
                          Input orientation:                          
 ---------------------------------------------------------------------
 Center     Atomic      Atomic             Coordinates (Angstroms)
 Number     Number       Type             X           Y           Z
 ---------------------------------------------------------------------
      1          6           0        0.162432    0.570126   -0.091046
      2          8           0       -0.164448   -0.567717    0.090957
      3          1           0       -0.557569    1.408513   -0.119711
      4          1           0        1.235160    0.817540   -0.240519
 ---------------------------------------------------------------------
                    Distance matrix (angstroms):
                    1          2          3          4
     1  C    0.000000
     2  O    1.197774   0.000000
     3  H    1.105494   2.025935   0.000000
     4  H    1.110991   1.996927   1.891487   0.000000
 Symmetry turned off by external request.
 Stoichiometry    CH2O
 Framework group  C1[X(CH2O)]
 Deg. of freedom     6
 Full point group                 C1      NOp   1
 Rotational constants (GHZ):         280.4351646          39.3866716          34.5361276

 **********************************************************************

            Population analysis using the SCF Density.

 **********************************************************************

 Alpha  occ. eigenvalues --  -19.19023 -10.29822  -1.09314  -0.65236  -0.51488
 Alpha  occ. eigenvalues --   -0.47152  -0.42094  -0.28471
 Alpha virt. eigenvalues --   -0.05470   0.01954   0.05034   0.05284   0.07445
 Alpha virt. eigenvalues --    0.13758   0.19204   0.19982   0.23438   0.24374
 Alpha virt. eigenvalues --    0.27849   0.32963   0.46249   0.48262   0.52279
 Alpha virt. eigenvalues --    0.57143   0.59734   0.62916   0.79453   0.79763
 Alpha virt. eigenvalues --    0.85091   0.96976   0.98245   1.07883   1.13738
 Alpha virt. eigenvalues --    1.25464   1.42983   1.45918   1.53062   1.61812
 Alpha virt. eigenvalues --    1.66350   1.90837   1.93030   2.08350   2.14991
 Alpha virt. eigenvalues --    2.27131   2.30380   2.48884   2.70303   2.74026
 Alpha virt. eigenvalues --    2.78113   3.14624   3.17866   3.24098   3.31792
 Alpha virt. eigenvalues --    3.48784   3.90361   3.99884   5.01901   5.05998
 Alpha virt. eigenvalues --    5.95636   6.77007   6.82255   6.97503   7.13437
 Alpha virt. eigenvalues --    7.18198  24.07266  49.96919
          Condensed to atoms (all electrons):
               1          2          3          4
     1  C    4.729890   0.385531   0.403319   0.407124
     2  O    0.385531   8.031468  -0.060308  -0.065770
     3  H    0.403319  -0.060308   0.627795  -0.081195
     4  H    0.407124  -0.065770  -0.081195   0.633445
 Mulliken charges:
               1
     1  C    0.074136
     2  O   -0.290921
     3  H    0.110389
     4  H    0.106396
 Sum of Mulliken charges =  -0.00000
 Mulliken charges with hydrogens summed into heavy atoms:
               1
     1  C    0.290921
     2  O   -0.290921
 APT charges:
               1
     1  C   -0.233477
     2  O   -0.379500
     3  H    0.313988
     4  H    0.298989
 Sum of APT charges =  -0.00000
 APT charges with hydrogens summed into heavy atoms:
               1
     1  C    0.379500
     2  O   -0.379500
 Electronic spatial extent (au):  <R**2>=             60.3226
 Charge=             -0.0000 electrons
 Dipole moment (field-independent basis, Debye):
    X=              0.6473    Y=              2.2898    Z=             -0.3651  Tot=              2.4074
 Quadrupole moment (field-independent basis, Debye-Ang):
   XX=            -11.6227   YY=            -11.7900   ZZ=            -11.7076
   XY=             -0.1466   XZ=              0.0100   YZ=              0.0273
 Traceless Quadrupole moment (field-independent basis, Debye-Ang):
   XX=              0.0841   YY=             -0.0833   ZZ=             -0.0008
   XY=             -0.1466   XZ=              0.0100   YZ=              0.0273
 Octapole moment (field-independent basis, Debye-Ang**2):
  XXX=             -0.2662  YYY=             -2.6661  ZZZ=              0.6936  XYY=             -0.8179
  XXY=             -0.4640  XXZ=             -0.0089  XZZ=             -0.4110  YZZ=             -1.4105
  YYZ=              0.0626  XYZ=             -0.0591
 Hexadecapole moment (field-independent basis, Debye-Ang**3):
 XXXX=            -20.3081 YYYY=            -42.8828 ZZZZ=            -11.3448 XXXY=             -3.3478
 XXXZ=              0.8535 YYYX=             -4.0677 YYYZ=              2.4686 ZZZX=              1.0868
 ZZZY=              2.5120 XXYY=            -10.4818 XXZZ=             -5.5945 YYZZ=             -9.1904
 XXYZ=              0.7620 YYXZ=              0.3904 ZZXY=             -1.1224
 N-N= 3.142571838544D+01 E-N=-3.318230775684D+02  KE= 1.140729854531D+02
  Exact polarizability:       0.000       0.000       0.000       0.000       0.000       0.000
 Approx polarizability:      19.971       2.975      29.959      -1.095      -2.444      13.903

 This type of calculation cannot be archived.


 IMAGINATION WILL OFTEN CARRY US TO WORLDS THAT NEVER WERE.
 BUT WITHOUT IT, WE GO NOWHERE. -- CARL SAGAN (COSMOS)
 Job cpu time:       0 days  0 hours  3 minutes 34.8 seconds.
 Elapsed time:       0 days  0 hours  3 minutes 36.2 seconds.
 File lengths (MBytes):  RWF=     17 Int=      0 D2E=      0 Chk=      3 Scr=      2
 Normal termination of Gaussian 16 at Wed Sep 30 09:26:55 2020.
