 Entering Gaussian System, Link 0=/public4/home/pgv3801/softwares/g16/g16
 Input=e6_07_irc1.gjf
 Output=e6_07_irc1.log
 Initial command:
 /public4/home/pgv3801/softwares/g16/l1.exe "/public4/home/pgv3801/softwares/tmp/Gau-116180.inp" -scrdir="/public4/home/pgv3801/softwares/tmp/"
 Entering Link 1 = /public4/home/pgv3801/softwares/g16/l1.exe PID=    116218.
  
 Copyright (c) 1988-2019, Gaussian, Inc.  All Rights Reserved.
  
 This is part of the Gaussian(R) 16 program.  It is based on
 the Gaussian(R) 09 system (copyright 2009, Gaussian, Inc.),
 the Gaussian(R) 03 system (copyright 2003, Gaussian, Inc.),
 the Gaussian(R) 98 system (copyright 1998, Gaussian, Inc.),
 the Gaussian(R) 94 system (copyright 1995, Gaussian, Inc.),
 the Gaussian 92(TM) system (copyright 1992, Gaussian, Inc.),
 the Gaussian 90(TM) system (copyright 1990, Gaussian, Inc.),
 the Gaussian 88(TM) system (copyright 1988, Gaussian, Inc.),
 the Gaussian 86(TM) system (copyright 1986, Carnegie Mellon
 University), and the Gaussian 82(TM) system (copyright 1983,
 Carnegie Mellon University). Gaussian is a federally registered
 trademark of Gaussian, Inc.
  
 This software contains proprietary and confidential information,
 including trade secrets, belonging to Gaussian, Inc.
  
 This software is provided under written license and may be
 used, copied, transmitted, or stored only in accord with that
 written license.
  
 The following legend is applicable only to US Government
 contracts under FAR:
  
                    RESTRICTED RIGHTS LEGEND
  
 Use, reproduction and disclosure by the US Government is
 subject to restrictions as set forth in subparagraphs (a)
 and (c) of the Commercial Computer Software - Restricted
 Rights clause in FAR 52.227-19.
  
 Gaussian, Inc.
 340 Quinnipiac St., Bldg. 40, Wallingford CT 06492
  
  
 ---------------------------------------------------------------
 Warning -- This program may not be used in any manner that
 competes with the business of Gaussian, Inc. or will provide
 assistance to any competitor of Gaussian, Inc.  The licensee
 of this program is prohibited from giving any competitor of
 Gaussian, Inc. access to this program.  By using this program,
 the user acknowledges that Gaussian, Inc. is engaged in the
 business of creating and licensing software in the field of
 computational chemistry and represents and warrants to the
 licensee that it is not a competitor of Gaussian, Inc. and that
 it will not use this program in any manner prohibited above.
 ---------------------------------------------------------------
  

 Cite this work as:
 Gaussian 16, Revision C.01,
 M. J. Frisch, G. W. Trucks, H. B. Schlegel, G. E. Scuseria, 
 M. A. Robb, J. R. Cheeseman, G. Scalmani, V. Barone, 
 G. A. Petersson, H. Nakatsuji, X. Li, M. Caricato, A. V. Marenich, 
 J. Bloino, B. G. Janesko, R. Gomperts, B. Mennucci, H. P. Hratchian, 
 J. V. Ortiz, A. F. Izmaylov, J. L. Sonnenberg, D. Williams-Young, 
 F. Ding, F. Lipparini, F. Egidi, J. Goings, B. Peng, A. Petrone, 
 T. Henderson, D. Ranasinghe, V. G. Zakrzewski, J. Gao, N. Rega, 
 G. Zheng, W. Liang, M. Hada, M. Ehara, K. Toyota, R. Fukuda, 
 J. Hasegawa, M. Ishida, T. Nakajima, Y. Honda, O. Kitao, H. Nakai, 
 T. Vreven, K. Throssell, J. A. Montgomery, Jr., J. E. Peralta, 
 F. Ogliaro, M. J. Bearpark, J. J. Heyd, E. N. Brothers, K. N. Kudin, 
 V. N. Staroverov, T. A. Keith, R. Kobayashi, J. Normand, 
 K. Raghavachari, A. P. Rendell, J. C. Burant, S. S. Iyengar, 
 J. Tomasi, M. Cossi, J. M. Millam, M. Klene, C. Adamo, R. Cammi, 
 J. W. Ochterski, R. L. Martin, K. Morokuma, O. Farkas, 
 J. B. Foresman, and D. J. Fox, Gaussian, Inc., Wallingford CT, 2019.
 
 ******************************************
 Gaussian 16:  ES64L-G16RevC.01  3-Jul-2019
                30-Sep-2020 
 ******************************************
 %OldChk=e6_07_ts1
 %Chk=e6_07_irc1
 Copying data from "e6_07_ts1.chk" to current chk file "e6_07_irc1.chk"
 IOpt=  2 FromEx=T IUOpen= 4 IOptOp= 5 NList=   0 IFRang= 0 IUIn= 4 IUOut= 2.
 ----------------------------------------------------------------------
 # apfd/6-311+g(2d,p) geom=check guess=read Int=(Ultrafine,Acc2E=12) IR
 C(RCFC,MaxPoints=40,Step=20,Recorrect=Never,Phase=(1,4))
 ----------------------------------------------------------------------
 1/10=5,18=10,26=4,29=2,38=1,39=20,42=40,44=3,101=1,102=4,131=1,172=1/1,23;
 2/12=2,29=1,40=1/2;
 3/5=4,6=6,7=112,11=2,14=-4,25=1,27=12,30=1,71=2,74=-44,75=-5,116=-2,140=1/1,2,3;
 4/5=1/1;
 5/5=2,38=6,87=12/2;
 8/6=4,10=90,11=11,87=12/1;
 11/6=1,8=1,9=11,15=111,16=1,87=12/1,2,10;
 10/6=1,13=1,87=12/2;
 6/7=2,8=2,9=2,10=2,28=1,87=12/1;
 7/10=1,25=1,87=12/1,2,3,16;
 1/18=10,26=4,39=20,42=40,44=3,101=1,102=4,131=1/23(2);
 2/29=1/2;
 99/5=20/99;
 2/29=1/2;
 3/5=4,6=6,7=112,11=2,14=-2,25=1,27=12,30=1,71=2,74=-44,75=-5,140=1/1,2,3;
 4/5=5,16=3,69=1/1;
 5/5=2,38=5,87=12/2;
 8/6=4,10=90,11=11,87=12/1;
 11/6=1,8=1,9=11,15=111,16=1,87=12/1,2,10;
 10/6=1,13=1,87=12/2;
 7/10=1,25=1,87=12/1,2,3,16;
 1/18=10,26=4,39=20,42=40,44=3,101=1,102=4,131=1/23(-8);
 2/29=1/2;
 6/7=2,8=2,9=2,10=2,19=2,28=1,87=12/1;
 99/5=20,9=1/99;
 ----------------------
 CH2O <---> CO + H2 IRC
 ----------------------
 Structure from the checkpoint file:  "e6_07_irc1.chk"
 Charge =  0 Multiplicity = 1
 Redundant internal coordinates found in file.  (old form).
 C,0,0.4190220355,0.0533126633,-0.5440355312
 O,0,0.2558837991,0.0325563932,0.602782209
 H,0,0.8837715665,0.1124432887,-1.5391035821
 H,0,2.0146350688,0.2563243652,-0.9476615857
 Recover connectivity data from disk.
 IRC-IRC-IRC-IRC-IRC-IRC-IRC-IRC-IRC-IRC-IRC-IRC-IRC-IRC-IRC-IRC-IRC-IRC
 ------------------------------------------------------------------------
 INPUT DATA FOR L123
 ------------------------------------------------------------------------
 GENERAL PARAMETERS:
 Follow reaction path in both directions.
 Maximum points per path      =  40
 Step size                    =   0.200 bohr
 Integration scheme           = HPC                                 
    Redo corrector integration= Never                               
    DWI Weight Power          =  2
    DWI will use Hessian update vectors when possible.
 Initial Hessian              = ReadFC from chk
 Hessian evaluation           = All updating
 Hessian updating method      = Bofill                              
 ------------------------------------------------------------------------
          ******** Start new reaction path calculation ********
 RCFC Option Requested - Data Read From Chk File:
 "e6_07_irc1.chk"
   Energy From Chk =   -114.3072242

 Setting the phase of the TS vector:      1      4      0      0
 Supplied step size of   0.2000 bohr.
    Integration on MW PES will use step size of   0.2190 sqrt(amu)*bohr.
 Point Number:   0          Path Number:   1
 Calculating another point on the path.
 IRC-IRC-IRC-IRC-IRC-IRC-IRC-IRC-IRC-IRC-IRC-IRC-IRC-IRC-IRC-IRC-IRC-IRC
                          Input orientation:                          
 ---------------------------------------------------------------------
 Center     Atomic      Atomic             Coordinates (Angstroms)
 Number     Number       Type             X           Y           Z
 ---------------------------------------------------------------------
      1          6           0        0.004403    0.000560   -0.562877
      2          8           0       -0.142437   -0.018122    0.582281
      3          1           0        0.574732    0.073124   -1.534583
      4          1           0        1.633429    0.207823   -1.004554
 ---------------------------------------------------------------------
                    Distance matrix (angstroms):
                    1          2          3          4
     1  C    0.000000
     2  O    1.154685   0.000000
     3  H    1.129050   2.236911   0.000000
     4  H    1.700518   2.392237   1.191601   0.000000
 Symmetry turned off by external request.
 Stoichiometry    CH2O
 Framework group  CS[SG(CH2O)]
 Deg. of freedom     5
 Full point group                 CS      NOp   2
 Rotational constants (GHZ):         258.8874450          35.9339095          31.5541526
 Standard basis: 6-311+G(2d,p) (5D, 7F)
    66 basis functions,   100 primitive gaussians,    70 cartesian basis functions
     8 alpha electrons        8 beta electrons
       nuclear repulsion energy        30.7833137330 Hartrees.
 NAtoms=    4 NActive=    4 NUniq=    4 SFac= 1.00D+00 NAtFMM=   60 NAOKFM=F Big=F
 Integral buffers will be    131072 words long.
 Raffenetti 2 integral format.
 Two-electron integral symmetry is turned off.
 R6APFD:  NTU= -4 IXU= 1 FactS= 1.050
 Nuclear repulsion after empirical dispersion term =       30.7829889157 Hartrees.
 One-electron integrals computed using PRISM.
 NBasis=    66 RedAO= T EigKep=  9.35D-04  NBF=    66
 NBsUse=    66 1.00D-06 EigRej= -1.00D+00 NBFU=    66
 Initial guess from the checkpoint file:  "e6_07_irc1.chk"
 B after Tr=     0.129337    0.016456   -0.148598
         Rot=   -0.096541    0.007358    0.707068   -0.700485 Ang= 191.08 deg.
 Keep R1 ints in memory in canonical form, NReq=3339201.
 Requested convergence on RMS density matrix=1.00D-08 within 128 cycles.
 Requested convergence on MAX density matrix=1.00D-06.
 Requested convergence on             energy=1.00D-06.
 No special actions if energy rises.
 SCF Done:  E(RAPFD) =  -114.310508525     A.U. after   10 cycles
            NFock= 10  Conv=0.40D-08     -V/T= 2.0029
 DoSCS=F DFT=T ScalE2(SS,OS)=  1.000000  1.000000
 Range of M.O.s used for correlation:     1    66
 NBasis=    66 NAE=     8 NBE=     8 NFC=     0 NFV=     0
 NROrb=     66 NOA=     8 NOB=     8 NVA=    58 NVB=    58

 **** Warning!!: The largest alpha MO coefficient is  0.11024856D+02

 Symmetrizing basis deriv contribution to polar:
 IMax=3 JMax=2 DiffMx= 0.00D+00

 **********************************************************************

            Population analysis using the SCF Density.

 **********************************************************************

 Alpha  occ. eigenvalues --  -19.25870 -10.33936  -1.16798  -0.67700  -0.54608
 Alpha  occ. eigenvalues --   -0.47882  -0.47586  -0.24297
 Alpha virt. eigenvalues --   -0.06971  -0.03155   0.01431   0.05345   0.06809
 Alpha virt. eigenvalues --    0.08100   0.10751   0.21120   0.21785   0.21988
 Alpha virt. eigenvalues --    0.25830   0.35293   0.39468   0.49116   0.50208
 Alpha virt. eigenvalues --    0.54162   0.58340   0.64754   0.71289   0.76208
 Alpha virt. eigenvalues --    0.78101   0.92254   1.00842   1.03970   1.06755
 Alpha virt. eigenvalues --    1.24357   1.34907   1.45144   1.47924   1.58025
 Alpha virt. eigenvalues --    1.58590   1.66677   1.87650   1.98516   2.10702
 Alpha virt. eigenvalues --    2.17634   2.36384   2.57694   2.58535   2.69106
 Alpha virt. eigenvalues --    2.76258   2.92861   3.18965   3.23609   3.28107
 Alpha virt. eigenvalues --    3.30840   3.65342   3.77568   4.97794   5.02611
 Alpha virt. eigenvalues --    5.92140   6.69119   6.71714   6.96395   7.03206
 Alpha virt. eigenvalues --    7.16103  24.08958  49.93203
          Condensed to atoms (all electrons):
               1          2          3          4
     1  C    5.326461   0.436765   0.239203  -0.044432
     2  O    0.436765   7.828640  -0.029851  -0.119552
     3  H    0.239203  -0.029851   0.369893   0.173388
     4  H   -0.044432  -0.119552   0.173388   1.163964
 Mulliken charges:
               1
     1  C    0.042003
     2  O   -0.116002
     3  H    0.247367
     4  H   -0.173369
 Sum of Mulliken charges =   0.00000
 Mulliken charges with hydrogens summed into heavy atoms:
               1
     1  C    0.116002
     2  O   -0.116002
 Electronic spatial extent (au):  <R**2>=             69.8938
 Charge=              0.0000 electrons
 Dipole moment (field-independent basis, Debye):
    X=             -0.5836    Y=             -0.0742    Z=             -1.1877  Tot=              1.3254
 Quadrupole moment (field-independent basis, Debye-Ang):
   XX=            -16.1115   YY=            -12.2167   ZZ=            -11.9362
   XY=             -0.5037   XZ=              0.5537   YZ=              0.0705
 Traceless Quadrupole moment (field-independent basis, Debye-Ang):
   XX=             -2.6900   YY=              1.2048   ZZ=              1.4852
   XY=             -0.5037   XZ=              0.5537   YZ=              0.0705
 Octapole moment (field-independent basis, Debye-Ang**2):
  XXX=            -12.7923  YYY=             -0.8885  ZZZ=              4.8174  XYY=             -2.3914
  XXY=             -1.0434  XXZ=              6.3599  XZZ=             -2.0704  YZZ=             -0.2634
  YYZ=              2.6453  XYZ=              0.4804
 Hexadecapole moment (field-independent basis, Debye-Ang**3):
 XXXX=            -54.7294 YYYY=            -11.8092 ZZZZ=            -46.2285 XXXY=             -3.3329
 XXXZ=             17.6943 YYYX=             -2.2177 YYYZ=              1.4275 ZZZX=              9.6904
 ZZZY=              1.2329 XXYY=             -9.7488 XXZZ=            -20.2416 YYZZ=            -10.7516
 XXYZ=              1.3087 YYXZ=              3.8108 ZZXY=             -1.2273
 N-N= 3.078298891571D+01 E-N=-3.297122944471D+02  KE= 1.139757328757D+02
  Exact polarizability:       0.000       0.000       0.000       0.000       0.000       0.000
 Approx polarizability:      66.109       6.695      14.342     -15.994      -2.035      35.247
 R6APFD:  NTU= -4 IXU= 1 FactS= 1.050
 Calling FoFJK, ICntrl=      2127 FMM=F ISym2X=0 I1Cent= 0 IOpClX= 0 NMat=1 NMatS=1 NMatT=0.
 -------------------------------------------------------------------
 Center     Atomic                   Forces (Hartrees/Bohr)
 Number     Number              X              Y              Z
 -------------------------------------------------------------------
      1        6          -0.038358795   -0.004880373    0.006294773
      2        8           0.010809345    0.001375111   -0.002008194
      3        1           0.024393445    0.003103674    0.005696374
      4        1           0.003156006    0.000401588   -0.009982952
 -------------------------------------------------------------------
 Cartesian Forces:  Max     0.038358795 RMS     0.014155410
 IRC-IRC-IRC-IRC-IRC-IRC-IRC-IRC-IRC-IRC-IRC-IRC-IRC-IRC-IRC-IRC-IRC-IRC
 Pt  1 Step number   1 out of a maximum of  20
 Modified Bulirsch-Stoer Extrapolation Cycles:
    EPS =    0.000010000000000
      PEZero:  N= 2 I= 1 D=  5.70D-04 Err=  1.40D-03
      PEZero:  N= 3 I= 2 D=  5.70D-04 Err=  9.32D-04
      PEZero:  N= 3 I= 1 D=  1.14D-03 Err=  2.63D-07
 Maximum DWI energy   std dev =  0.000012039 at pt     1
 Maximum DWI gradient std dev =  0.041634482 at pt     1
 Point Number:   1          Path Number:   1
   CHANGE IN THE REACTION COORDINATE =    0.21894
   NET REACTION COORDINATE UP TO THIS POINT =    0.21894
  # OF POINTS ALONG THE PATH =   1
  # OF STEPS =   1

 Calculating another point on the path.
 IRC-IRC-IRC-IRC-IRC-IRC-IRC-IRC-IRC-IRC-IRC-IRC-IRC-IRC-IRC-IRC-IRC-IRC
                          Input orientation:                          
 ---------------------------------------------------------------------
 Center     Atomic      Atomic             Coordinates (Angstroms)
 Number     Number       Type             X           Y           Z
 ---------------------------------------------------------------------
      1          6           0       -0.007960   -0.001013   -0.561069
      2          8           0       -0.139842   -0.017792    0.581904
      3          1           0        0.669479    0.085179   -1.510938
      4          1           0        1.644987    0.209294   -1.043783
 ---------------------------------------------------------------------
                    Distance matrix (angstroms):
                    1          2          3          4
     1  C    0.000000
     2  O    1.150679   0.000000
     3  H    1.169874   2.246240   0.000000
     4  H    1.734784   2.424880   1.088694   0.000000
 Symmetry turned off by external request.
 Stoichiometry    CH2O
 Framework group  C1[X(CH2O)]
 Deg. of freedom     6
 Full point group                 C1      NOp   1
 Rotational constants (GHZ):         250.9780232          35.7719860          31.3094404
 Standard basis: 6-311+G(2d,p) (5D, 7F)
    66 basis functions,   100 primitive gaussians,    70 cartesian basis functions
     8 alpha electrons        8 beta electrons
       nuclear repulsion energy        30.7351758962 Hartrees.
 NAtoms=    4 NActive=    4 NUniq=    4 SFac= 1.00D+00 NAtFMM=   60 NAOKFM=F Big=F
 Integral buffers will be    131072 words long.
 Raffenetti 2 integral format.
 Two-electron integral symmetry is turned off.
 R6APFD:  NTU= -4 IXU= 1 FactS= 1.050
 Nuclear repulsion after empirical dispersion term =       30.7348363387 Hartrees.
 One-electron integrals computed using PRISM.
 NBasis=    66 RedAO= T EigKep=  9.90D-04  NBF=    66
 NBsUse=    66 1.00D-06 EigRej= -1.00D+00 NBFU=    66
 Initial guess from the checkpoint file:  "e6_07_irc1.chk"
 B after Tr=     0.005584    0.000710   -0.001504
         Rot=    0.999997   -0.000284    0.002236   -0.000000 Ang=  -0.26 deg.
 ExpMin= 4.38D-02 ExpMax= 8.59D+03 ExpMxC= 1.30D+03 IAcc=3 IRadAn=         5 AccDes= 0.00D+00
 Harris functional with IExCor= 3731 and IRadAn=       5 diagonalized for initial guess.
 HarFok:  IExCor= 3731 AccDes= 0.00D+00 IRadAn=         5 IDoV= 1 UseB2=F ITyADJ=14
 ICtDFT=  3500011 ScaDFX=  1.000000  1.000000  1.000000  1.000000
 FoFCou: FMM=F IPFlag=           0 FMFlag=      100000 FMFlg1=           0
         NFxFlg=           0 DoJE=T BraDBF=F KetDBF=T FulRan=T
         wScrn=  0.000000 ICntrl=       500 IOpCl=  0 I1Cent=   200000004 NGrid=           0
         NMat0=    1 NMatS0=      1 NMatT0=    0 NMatD0=    1 NMtDS0=    0 NMtDT0=    0
 Symmetry not used in FoFCou.
 Keep R1 ints in memory in canonical form, NReq=3339201.
 Requested convergence on RMS density matrix=1.00D-08 within 128 cycles.
 Requested convergence on MAX density matrix=1.00D-06.
 Requested convergence on             energy=1.00D-06.
 No special actions if energy rises.
 SCF Done:  E(RAPFD) =  -114.319888865     A.U. after   10 cycles
            NFock= 10  Conv=0.35D-08     -V/T= 2.0026
 DoSCS=F DFT=T ScalE2(SS,OS)=  1.000000  1.000000
 Range of M.O.s used for correlation:     1    66
 NBasis=    66 NAE=     8 NBE=     8 NFC=     0 NFV=     0
 NROrb=     66 NOA=     8 NOB=     8 NVA=    58 NVB=    58

 **** Warning!!: The largest alpha MO coefficient is  0.10347984D+02

 Symmetrizing basis deriv contribution to polar:
 IMax=3 JMax=2 DiffMx= 0.00D+00
 R6APFD:  NTU= -4 IXU= 1 FactS= 1.050
 Calling FoFJK, ICntrl=      2127 FMM=F ISym2X=0 I1Cent= 0 IOpClX= 0 NMat=1 NMatS=1 NMatT=0.
 -------------------------------------------------------------------
 Center     Atomic                   Forces (Hartrees/Bohr)
 Number     Number              X              Y              Z
 -------------------------------------------------------------------
      1        6          -0.068372189   -0.008698994    0.013776375
      2        8           0.018253697    0.002322294   -0.003600572
      3        1           0.046031117    0.005856586    0.008700718
      4        1           0.004087375    0.000520113   -0.018876522
 -------------------------------------------------------------------
 Cartesian Forces:  Max     0.068372189 RMS     0.025648161
 IRC-IRC-IRC-IRC-IRC-IRC-IRC-IRC-IRC-IRC-IRC-IRC-IRC-IRC-IRC-IRC-IRC-IRC
 Pt  2 Step number   1 out of a maximum of  20
 Modified Bulirsch-Stoer Extrapolation Cycles:
    EPS =    0.000010000000000
      PEZero:  N= 2 I= 1 D=  1.14D-03 Err=  6.12D-05
      PEZero:  N= 3 I= 2 D=  1.14D-03 Err=  4.08D-05
      PEZero:  N= 3 I= 1 D=  2.28D-03 Err=  1.40D-07
 Maximum DWI energy   std dev =  0.000038056 at pt    50
 Maximum DWI gradient std dev =  0.029291243 at pt    55
 Point Number:   2          Path Number:   1
   CHANGE IN THE REACTION COORDINATE =    0.21890
   NET REACTION COORDINATE UP TO THIS POINT =    0.43784
  # OF POINTS ALONG THE PATH =   2
  # OF STEPS =   1

 Calculating another point on the path.
 IRC-IRC-IRC-IRC-IRC-IRC-IRC-IRC-IRC-IRC-IRC-IRC-IRC-IRC-IRC-IRC-IRC-IRC
                          Input orientation:                          
 ---------------------------------------------------------------------
 Center     Atomic      Atomic             Coordinates (Angstroms)
 Number     Number       Type             X           Y           Z
 ---------------------------------------------------------------------
      1          6           0       -0.019624   -0.002497   -0.558769
      2          8           0       -0.137563   -0.017502    0.581500
      3          1           0        0.766279    0.097495   -1.491555
      4          1           0        1.651363    0.210105   -1.084190
 ---------------------------------------------------------------------
                    Distance matrix (angstroms):
                    1          2          3          4
     1  C    0.000000
     2  O    1.146451   0.000000
     3  H    1.223818   2.264445   0.000000
     4  H    1.764501   2.454911   0.980817   0.000000
 Symmetry turned off by external request.
 Stoichiometry    CH2O
 Framework group  C1[X(CH2O)]
 Deg. of freedom     6
 Full point group                 C1      NOp   1
 Rotational constants (GHZ):         243.3165478          35.5613574          31.0267202
 Standard basis: 6-311+G(2d,p) (5D, 7F)
    66 basis functions,   100 primitive gaussians,    70 cartesian basis functions
     8 alpha electrons        8 beta electrons
       nuclear repulsion energy        30.6830959539 Hartrees.
 NAtoms=    4 NActive=    4 NUniq=    4 SFac= 1.00D+00 NAtFMM=   60 NAOKFM=F Big=F
 Integral buffers will be    131072 words long.
 Raffenetti 2 integral format.
 Two-electron integral symmetry is turned off.
 R6APFD:  NTU= -4 IXU= 1 FactS= 1.050
 Nuclear repulsion after empirical dispersion term =       30.6827389085 Hartrees.
 One-electron integrals computed using PRISM.
 NBasis=    66 RedAO= T EigKep=  1.04D-03  NBF=    66
 NBsUse=    66 1.00D-06 EigRej= -1.00D+00 NBFU=    66
 Initial guess from the checkpoint file:  "e6_07_irc1.chk"
 B after Tr=     0.005455    0.000694   -0.001808
         Rot=    0.999998   -0.000264    0.002075   -0.000000 Ang=  -0.24 deg.
 ExpMin= 4.38D-02 ExpMax= 8.59D+03 ExpMxC= 1.30D+03 IAcc=3 IRadAn=         5 AccDes= 0.00D+00
 Harris functional with IExCor= 3731 and IRadAn=       5 diagonalized for initial guess.
 HarFok:  IExCor= 3731 AccDes= 0.00D+00 IRadAn=         5 IDoV= 1 UseB2=F ITyADJ=14
 ICtDFT=  3500011 ScaDFX=  1.000000  1.000000  1.000000  1.000000
 FoFCou: FMM=F IPFlag=           0 FMFlag=      100000 FMFlg1=           0
         NFxFlg=           0 DoJE=T BraDBF=F KetDBF=T FulRan=T
         wScrn=  0.000000 ICntrl=       500 IOpCl=  0 I1Cent=   200000004 NGrid=           0
         NMat0=    1 NMatS0=      1 NMatT0=    0 NMatD0=    1 NMtDS0=    0 NMtDT0=    0
 Symmetry not used in FoFCou.
 Keep R1 ints in memory in canonical form, NReq=3339201.
 Requested convergence on RMS density matrix=1.00D-08 within 128 cycles.
 Requested convergence on MAX density matrix=1.00D-06.
 Requested convergence on             energy=1.00D-06.
 No special actions if energy rises.
 SCF Done:  E(RAPFD) =  -114.333904333     A.U. after   10 cycles
            NFock= 10  Conv=0.32D-08     -V/T= 2.0022
 DoSCS=F DFT=T ScalE2(SS,OS)=  1.000000  1.000000
 Range of M.O.s used for correlation:     1    66
 NBasis=    66 NAE=     8 NBE=     8 NFC=     0 NFV=     0
 NROrb=     66 NOA=     8 NOB=     8 NVA=    58 NVB=    58
 Symmetrizing basis deriv contribution to polar:
 IMax=3 JMax=2 DiffMx= 0.00D+00
 R6APFD:  NTU= -4 IXU= 1 FactS= 1.050
 Calling FoFJK, ICntrl=      2127 FMM=F ISym2X=0 I1Cent= 0 IOpClX= 0 NMat=1 NMatS=1 NMatT=0.
 -------------------------------------------------------------------
 Center     Atomic                   Forces (Hartrees/Bohr)
 Number     Number              X              Y              Z
 -------------------------------------------------------------------
      1        6          -0.087671244   -0.011154270    0.020781935
      2        8           0.021847867    0.002779563   -0.004080380
      3        1           0.060043513    0.007639253    0.007575396
      4        1           0.005779864    0.000735454   -0.024276951
 -------------------------------------------------------------------
 Cartesian Forces:  Max     0.087671244 RMS     0.033025930
 IRC-IRC-IRC-IRC-IRC-IRC-IRC-IRC-IRC-IRC-IRC-IRC-IRC-IRC-IRC-IRC-IRC-IRC
 Pt  3 Step number   1 out of a maximum of  20
 Modified Bulirsch-Stoer Extrapolation Cycles:
    EPS =    0.000010000000000
      PEZero:  N= 2 I= 1 D=  1.14D-03 Err=  5.40D-05
      PEZero:  N= 3 I= 2 D=  1.14D-03 Err=  3.58D-05
      PEZero:  N= 3 I= 1 D=  2.28D-03 Err=  2.53D-07
 Maximum DWI energy   std dev =  0.000102646 at pt    73
 Maximum DWI gradient std dev =  0.024925176 at pt    28
 Point Number:   3          Path Number:   1
   CHANGE IN THE REACTION COORDINATE =    0.21893
   NET REACTION COORDINATE UP TO THIS POINT =    0.65677
  # OF POINTS ALONG THE PATH =   3
  # OF STEPS =   1

 Calculating another point on the path.
 IRC-IRC-IRC-IRC-IRC-IRC-IRC-IRC-IRC-IRC-IRC-IRC-IRC-IRC-IRC-IRC-IRC-IRC
                          Input orientation:                          
 ---------------------------------------------------------------------
 Center     Atomic      Atomic             Coordinates (Angstroms)
 Number     Number       Type             X           Y           Z
 ---------------------------------------------------------------------
      1          6           0       -0.031479   -0.004005   -0.555998
      2          8           0       -0.135414   -0.017229    0.581142
      3          1           0        0.863738    0.109894   -1.479158
      4          1           0        1.661230    0.211361   -1.123955
 ---------------------------------------------------------------------
                    Distance matrix (angstroms):
                    1          2          3          4
     1  C    0.000000
     2  O    1.141956   0.000000
     3  H    1.290974   2.293317   0.000000
     4  H    1.798394   2.487476   0.878896   0.000000
 Symmetry turned off by external request.
 Stoichiometry    CH2O
 Framework group  C1[X(CH2O)]
 Deg. of freedom     6
 Full point group                 C1      NOp   1
 Rotational constants (GHZ):         233.3253982          35.2814973          30.6472751
 Standard basis: 6-311+G(2d,p) (5D, 7F)
    66 basis functions,   100 primitive gaussians,    70 cartesian basis functions
     8 alpha electrons        8 beta electrons
       nuclear repulsion energy        30.6178714729 Hartrees.
 NAtoms=    4 NActive=    4 NUniq=    4 SFac= 1.00D+00 NAtFMM=   60 NAOKFM=F Big=F
 Integral buffers will be    131072 words long.
 Raffenetti 2 integral format.
 Two-electron integral symmetry is turned off.
 R6APFD:  NTU= -4 IXU= 1 FactS= 1.050
 Nuclear repulsion after empirical dispersion term =       30.6174932838 Hartrees.
 One-electron integrals computed using PRISM.
 NBasis=    66 RedAO= T EigKep=  1.08D-03  NBF=    66
 NBsUse=    66 1.00D-06 EigRej= -1.00D+00 NBFU=    66
 Initial guess from the checkpoint file:  "e6_07_irc1.chk"
 B after Tr=     0.005686    0.000723   -0.002200
         Rot=    0.999998   -0.000262    0.002059   -0.000000 Ang=  -0.24 deg.
 ExpMin= 4.38D-02 ExpMax= 8.59D+03 ExpMxC= 1.30D+03 IAcc=3 IRadAn=         5 AccDes= 0.00D+00
 Harris functional with IExCor= 3731 and IRadAn=       5 diagonalized for initial guess.
 HarFok:  IExCor= 3731 AccDes= 0.00D+00 IRadAn=         5 IDoV= 1 UseB2=F ITyADJ=14
 ICtDFT=  3500011 ScaDFX=  1.000000  1.000000  1.000000  1.000000
 FoFCou: FMM=F IPFlag=           0 FMFlag=      100000 FMFlg1=           0
         NFxFlg=           0 DoJE=T BraDBF=F KetDBF=T FulRan=T
         wScrn=  0.000000 ICntrl=       500 IOpCl=  0 I1Cent=   200000004 NGrid=           0
         NMat0=    1 NMatS0=      1 NMatT0=    0 NMatD0=    1 NMtDS0=    0 NMtDT0=    0
 Symmetry not used in FoFCou.
 Keep R1 ints in memory in canonical form, NReq=3339201.
 Requested convergence on RMS density matrix=1.00D-08 within 128 cycles.
 Requested convergence on MAX density matrix=1.00D-06.
 Requested convergence on             energy=1.00D-06.
 No special actions if energy rises.
 SCF Done:  E(RAPFD) =  -114.349850981     A.U. after   10 cycles
            NFock= 10  Conv=0.25D-08     -V/T= 2.0017
 DoSCS=F DFT=T ScalE2(SS,OS)=  1.000000  1.000000
 Range of M.O.s used for correlation:     1    66
 NBasis=    66 NAE=     8 NBE=     8 NFC=     0 NFV=     0
 NROrb=     66 NOA=     8 NOB=     8 NVA=    58 NVB=    58
 Symmetrizing basis deriv contribution to polar:
 IMax=3 JMax=2 DiffMx= 0.00D+00
 R6APFD:  NTU= -4 IXU= 1 FactS= 1.050
 Calling FoFJK, ICntrl=      2127 FMM=F ISym2X=0 I1Cent= 0 IOpClX= 0 NMat=1 NMatS=1 NMatT=0.
 -------------------------------------------------------------------
 Center     Atomic                   Forces (Hartrees/Bohr)
 Number     Number              X              Y              Z
 -------------------------------------------------------------------
      1        6          -0.094813312   -0.012063101    0.025190604
      2        8           0.021770918    0.002769742   -0.003209219
      3        1           0.059891727    0.007620135    0.001413749
      4        1           0.013150666    0.001673224   -0.023395134
 -------------------------------------------------------------------
 Cartesian Forces:  Max     0.094813312 RMS     0.034918654
 IRC-IRC-IRC-IRC-IRC-IRC-IRC-IRC-IRC-IRC-IRC-IRC-IRC-IRC-IRC-IRC-IRC-IRC
 Pt  4 Step number   1 out of a maximum of  20
 Modified Bulirsch-Stoer Extrapolation Cycles:
    EPS =    0.000010000000000
      PEZero:  N= 2 I= 1 D=  1.14D-03 Err=  1.54D-04
      PEZero:  N= 3 I= 2 D=  1.14D-03 Err=  1.03D-04
      PEZero:  N= 3 I= 1 D=  2.28D-03 Err=  4.18D-07
 Maximum DWI energy   std dev =  0.000169213 at pt    36
 Maximum DWI gradient std dev =  0.042881265 at pt    29
 Point Number:   4          Path Number:   1
   CHANGE IN THE REACTION COORDINATE =    0.21875
   NET REACTION COORDINATE UP TO THIS POINT =    0.87551
  # OF POINTS ALONG THE PATH =   4
  # OF STEPS =   1

 Calculating another point on the path.
 IRC-IRC-IRC-IRC-IRC-IRC-IRC-IRC-IRC-IRC-IRC-IRC-IRC-IRC-IRC-IRC-IRC-IRC
                          Input orientation:                          
 ---------------------------------------------------------------------
 Center     Atomic      Atomic             Coordinates (Angstroms)
 Number     Number       Type             X           Y           Z
 ---------------------------------------------------------------------
      1          6           0       -0.044658   -0.005682   -0.552692
      2          8           0       -0.133205   -0.016948    0.580886
      3          1           0        0.957785    0.121860   -1.477308
      4          1           0        1.689410    0.214946   -1.161198
 ---------------------------------------------------------------------
                    Distance matrix (angstroms):
                    1          2          3          4
     1  C    0.000000
     2  O    1.137088   0.000000
     3  H    1.369699   2.333601   0.000000
     4  H    1.850931   2.531908   0.802412   0.000000
 Symmetry turned off by external request.
 Stoichiometry    CH2O
 Framework group  C1[X(CH2O)]
 Deg. of freedom     6
 Full point group                 C1      NOp   1
 Rotational constants (GHZ):         218.3751030          34.8966305          30.0884555
 Standard basis: 6-311+G(2d,p) (5D, 7F)
    66 basis functions,   100 primitive gaussians,    70 cartesian basis functions
     8 alpha electrons        8 beta electrons
       nuclear repulsion energy        30.5172993436 Hartrees.
 NAtoms=    4 NActive=    4 NUniq=    4 SFac= 1.00D+00 NAtFMM=   60 NAOKFM=F Big=F
 Integral buffers will be    131072 words long.
 Raffenetti 2 integral format.
 Two-electron integral symmetry is turned off.
 R6APFD:  NTU= -4 IXU= 1 FactS= 1.050
 Nuclear repulsion after empirical dispersion term =       30.5168985826 Hartrees.
 One-electron integrals computed using PRISM.
 NBasis=    66 RedAO= T EigKep=  1.11D-03  NBF=    66
 NBsUse=    66 1.00D-06 EigRej= -1.00D+00 NBFU=    66
 Initial guess from the checkpoint file:  "e6_07_irc1.chk"
 B after Tr=     0.006502    0.000827   -0.002757
         Rot=    0.999997   -0.000286    0.002245   -0.000000 Ang=  -0.26 deg.
 ExpMin= 4.38D-02 ExpMax= 8.59D+03 ExpMxC= 1.30D+03 IAcc=3 IRadAn=         5 AccDes= 0.00D+00
 Harris functional with IExCor= 3731 and IRadAn=       5 diagonalized for initial guess.
 HarFok:  IExCor= 3731 AccDes= 0.00D+00 IRadAn=         5 IDoV= 1 UseB2=F ITyADJ=14
 ICtDFT=  3500011 ScaDFX=  1.000000  1.000000  1.000000  1.000000
 FoFCou: FMM=F IPFlag=           0 FMFlag=      100000 FMFlg1=           0
         NFxFlg=           0 DoJE=T BraDBF=F KetDBF=T FulRan=T
         wScrn=  0.000000 ICntrl=       500 IOpCl=  0 I1Cent=   200000004 NGrid=           0
         NMat0=    1 NMatS0=      1 NMatT0=    0 NMatD0=    1 NMtDS0=    0 NMtDT0=    0
 Symmetry not used in FoFCou.
 Keep R1 ints in memory in canonical form, NReq=3339201.
 Requested convergence on RMS density matrix=1.00D-08 within 128 cycles.
 Requested convergence on MAX density matrix=1.00D-06.
 Requested convergence on             energy=1.00D-06.
 No special actions if energy rises.
 SCF Done:  E(RAPFD) =  -114.364618296     A.U. after   10 cycles
            NFock= 10  Conv=0.16D-08     -V/T= 2.0014
 DoSCS=F DFT=T ScalE2(SS,OS)=  1.000000  1.000000
 Range of M.O.s used for correlation:     1    66
 NBasis=    66 NAE=     8 NBE=     8 NFC=     0 NFV=     0
 NROrb=     66 NOA=     8 NOB=     8 NVA=    58 NVB=    58
 Symmetrizing basis deriv contribution to polar:
 IMax=3 JMax=2 DiffMx= 0.00D+00
 R6APFD:  NTU= -4 IXU= 1 FactS= 1.050
 Calling FoFJK, ICntrl=      2127 FMM=F ISym2X=0 I1Cent= 0 IOpClX= 0 NMat=1 NMatS=1 NMatT=0.
 -------------------------------------------------------------------
 Center     Atomic                   Forces (Hartrees/Bohr)
 Number     Number              X              Y              Z
 -------------------------------------------------------------------
      1        6          -0.089318714   -0.011364002    0.024341440
      2        8           0.018753891    0.002385845   -0.000631049
      3        1           0.044976900    0.005722474   -0.007055452
      4        1           0.025587923    0.003255683   -0.016654939
 -------------------------------------------------------------------
 Cartesian Forces:  Max     0.089318714 RMS     0.031761420
 IRC-IRC-IRC-IRC-IRC-IRC-IRC-IRC-IRC-IRC-IRC-IRC-IRC-IRC-IRC-IRC-IRC-IRC
 Reaction path inflection point has been passed.
   Previous lowest Hessian eigenvalue=   -0.0167765890
   Current lowest Hessian eigenvalue =    0.0015800061
 Pt  5 Step number   1 out of a maximum of  20
 Modified Bulirsch-Stoer Extrapolation Cycles:
    EPS =    0.000010000000000
      PEZero:  N= 2 I= 1 D=  1.14D-03 Err=  3.25D-04
      PEZero:  N= 3 I= 2 D=  1.14D-03 Err=  2.17D-04
      PEZero:  N= 3 I= 1 D=  2.28D-03 Err=  7.25D-07
 Maximum DWI energy   std dev =  0.000173577 at pt    35
 Maximum DWI gradient std dev =  0.065907736 at pt    29
 Point Number:   5          Path Number:   1
   CHANGE IN THE REACTION COORDINATE =    0.21807
   NET REACTION COORDINATE UP TO THIS POINT =    1.09358
  # OF POINTS ALONG THE PATH =   5
  # OF STEPS =   1

 Calculating another point on the path.
 IRC-IRC-IRC-IRC-IRC-IRC-IRC-IRC-IRC-IRC-IRC-IRC-IRC-IRC-IRC-IRC-IRC-IRC
                          Input orientation:                          
 ---------------------------------------------------------------------
 Center     Atomic      Atomic             Coordinates (Angstroms)
 Number     Number       Type             X           Y           Z
 ---------------------------------------------------------------------
      1          6           0       -0.059149   -0.007526   -0.549269
      2          8           0       -0.130967   -0.016663    0.580928
      3          1           0        1.036092    0.131823   -1.488534
      4          1           0        1.750065    0.222664   -1.191964
 ---------------------------------------------------------------------
                    Distance matrix (angstroms):
                    1          2          3          4
     1  C    0.000000
     2  O    1.132513   0.000000
     3  H    1.449548   2.380493   0.000000
     4  H    1.933727   2.595901   0.778436   0.000000
 Symmetry turned off by external request.
 Stoichiometry    CH2O
 Framework group  C1[X(CH2O)]
 Deg. of freedom     6
 Full point group                 C1      NOp   1
 Rotational constants (GHZ):         198.7434254          34.3844704          29.3130404
 Standard basis: 6-311+G(2d,p) (5D, 7F)
    66 basis functions,   100 primitive gaussians,    70 cartesian basis functions
     8 alpha electrons        8 beta electrons
       nuclear repulsion energy        30.3497434747 Hartrees.
 NAtoms=    4 NActive=    4 NUniq=    4 SFac= 1.00D+00 NAtFMM=   60 NAOKFM=F Big=F
 Integral buffers will be    131072 words long.
 Raffenetti 2 integral format.
 Two-electron integral symmetry is turned off.
 R6APFD:  NTU= -4 IXU= 1 FactS= 1.050
 Nuclear repulsion after empirical dispersion term =       30.3493262951 Hartrees.
 One-electron integrals computed using PRISM.
 NBasis=    66 RedAO= T EigKep=  1.13D-03  NBF=    66
 NBsUse=    66 1.00D-06 EigRej= -1.00D+00 NBFU=    66
 Initial guess from the checkpoint file:  "e6_07_irc1.chk"
 B after Tr=     0.007491    0.000953   -0.003281
         Rot=    0.999997   -0.000317    0.002489   -0.000000 Ang=  -0.29 deg.
 ExpMin= 4.38D-02 ExpMax= 8.59D+03 ExpMxC= 1.30D+03 IAcc=3 IRadAn=         5 AccDes= 0.00D+00
 Harris functional with IExCor= 3731 and IRadAn=       5 diagonalized for initial guess.
 HarFok:  IExCor= 3731 AccDes= 0.00D+00 IRadAn=         5 IDoV= 1 UseB2=F ITyADJ=14
 ICtDFT=  3500011 ScaDFX=  1.000000  1.000000  1.000000  1.000000
 FoFCou: FMM=F IPFlag=           0 FMFlag=      100000 FMFlg1=           0
         NFxFlg=           0 DoJE=T BraDBF=F KetDBF=T FulRan=T
         wScrn=  0.000000 ICntrl=       500 IOpCl=  0 I1Cent=   200000004 NGrid=           0
         NMat0=    1 NMatS0=      1 NMatT0=    0 NMatD0=    1 NMtDS0=    0 NMtDT0=    0
 Symmetry not used in FoFCou.
 Keep R1 ints in memory in canonical form, NReq=3339201.
 Requested convergence on RMS density matrix=1.00D-08 within 128 cycles.
 Requested convergence on MAX density matrix=1.00D-06.
 Requested convergence on             energy=1.00D-06.
 No special actions if energy rises.
 SCF Done:  E(RAPFD) =  -114.377156398     A.U. after    9 cycles
            NFock=  9  Conv=0.93D-08     -V/T= 2.0014
 DoSCS=F DFT=T ScalE2(SS,OS)=  1.000000  1.000000
 Range of M.O.s used for correlation:     1    66
 NBasis=    66 NAE=     8 NBE=     8 NFC=     0 NFV=     0
 NROrb=     66 NOA=     8 NOB=     8 NVA=    58 NVB=    58
 Symmetrizing basis deriv contribution to polar:
 IMax=3 JMax=2 DiffMx= 0.00D+00
 R6APFD:  NTU= -4 IXU= 1 FactS= 1.050
 Calling FoFJK, ICntrl=      2127 FMM=F ISym2X=0 I1Cent= 0 IOpClX= 0 NMat=1 NMatS=1 NMatT=0.
 -------------------------------------------------------------------
 Center     Atomic                   Forces (Hartrees/Bohr)
 Number     Number              X              Y              Z
 -------------------------------------------------------------------
      1        6          -0.074771743   -0.009513210    0.018407782
      2        8           0.014428348    0.001835512    0.002979194
      3        1           0.035876758    0.004564647   -0.008112985
      4        1           0.024466638    0.003113052   -0.013273991
 -------------------------------------------------------------------
 Cartesian Forces:  Max     0.074771743 RMS     0.026455761
 IRC-IRC-IRC-IRC-IRC-IRC-IRC-IRC-IRC-IRC-IRC-IRC-IRC-IRC-IRC-IRC-IRC-IRC
 Pt  6 Step number   1 out of a maximum of  20
 Modified Bulirsch-Stoer Extrapolation Cycles:
    EPS =    0.000010000000000
      PEZero:  N= 2 I= 1 D=  1.14D-03 Err=  1.07D-04
      PEZero:  N= 3 I= 2 D=  1.14D-03 Err=  7.11D-05
      PEZero:  N= 3 I= 1 D=  2.28D-03 Err=  3.56D-07
 Maximum DWI energy   std dev =  0.000123399 at pt    65
 Maximum DWI gradient std dev =  0.033017456 at pt    39
 Point Number:   6          Path Number:   1
   CHANGE IN THE REACTION COORDINATE =    0.21861
   NET REACTION COORDINATE UP TO THIS POINT =    1.31219
  # OF POINTS ALONG THE PATH =   6
  # OF STEPS =   1

 Calculating another point on the path.
 IRC-IRC-IRC-IRC-IRC-IRC-IRC-IRC-IRC-IRC-IRC-IRC-IRC-IRC-IRC-IRC-IRC-IRC
                          Input orientation:                          
 ---------------------------------------------------------------------
 Center     Atomic      Atomic             Coordinates (Angstroms)
 Number     Number       Type             X           Y           Z
 ---------------------------------------------------------------------
      1          6           0       -0.073020   -0.009290   -0.546455
      2          8           0       -0.129035   -0.016417    0.581676
      3          1           0        1.114993    0.141862   -1.505336
      4          1           0        1.807679    0.229994   -1.220999
 ---------------------------------------------------------------------
                    Distance matrix (angstroms):
                    1          2          3          4
     1  C    0.000000
     2  O    1.129542   0.000000
     3  H    1.534169   2.434805   0.000000
     4  H    2.012286   2.657294   0.753942   0.000000
 Symmetry turned off by external request.
 Stoichiometry    CH2O
 Framework group  C1[X(CH2O)]
 Deg. of freedom     6
 Full point group                 C1      NOp   1
 Rotational constants (GHZ):         182.3237746          33.7706904          28.4930933
 Standard basis: 6-311+G(2d,p) (5D, 7F)
    66 basis functions,   100 primitive gaussians,    70 cartesian basis functions
     8 alpha electrons        8 beta electrons
       nuclear repulsion energy        30.1685545772 Hartrees.
 NAtoms=    4 NActive=    4 NUniq=    4 SFac= 1.00D+00 NAtFMM=   60 NAOKFM=F Big=F
 Integral buffers will be    131072 words long.
 Raffenetti 2 integral format.
 Two-electron integral symmetry is turned off.
 R6APFD:  NTU= -4 IXU= 1 FactS= 1.050
 Nuclear repulsion after empirical dispersion term =       30.1681146407 Hartrees.
 One-electron integrals computed using PRISM.
 NBasis=    66 RedAO= T EigKep=  1.15D-03  NBF=    66
 NBsUse=    66 1.00D-06 EigRej= -1.00D+00 NBFU=    66
 Initial guess from the checkpoint file:  "e6_07_irc1.chk"
 B after Tr=     0.007398    0.000941   -0.003480
         Rot=    0.999997   -0.000293    0.002306   -0.000000 Ang=  -0.27 deg.
 ExpMin= 4.38D-02 ExpMax= 8.59D+03 ExpMxC= 1.30D+03 IAcc=3 IRadAn=         5 AccDes= 0.00D+00
 Harris functional with IExCor= 3731 and IRadAn=       5 diagonalized for initial guess.
 HarFok:  IExCor= 3731 AccDes= 0.00D+00 IRadAn=         5 IDoV= 1 UseB2=F ITyADJ=14
 ICtDFT=  3500011 ScaDFX=  1.000000  1.000000  1.000000  1.000000
 FoFCou: FMM=F IPFlag=           0 FMFlag=      100000 FMFlg1=           0
         NFxFlg=           0 DoJE=T BraDBF=F KetDBF=T FulRan=T
         wScrn=  0.000000 ICntrl=       500 IOpCl=  0 I1Cent=   200000004 NGrid=           0
         NMat0=    1 NMatS0=      1 NMatT0=    0 NMatD0=    1 NMtDS0=    0 NMtDT0=    0
 Symmetry not used in FoFCou.
 Keep R1 ints in memory in canonical form, NReq=3339201.
 Requested convergence on RMS density matrix=1.00D-08 within 128 cycles.
 Requested convergence on MAX density matrix=1.00D-06.
 Requested convergence on             energy=1.00D-06.
 No special actions if energy rises.
 SCF Done:  E(RAPFD) =  -114.387347743     A.U. after    9 cycles
            NFock=  9  Conv=0.63D-08     -V/T= 2.0014
 DoSCS=F DFT=T ScalE2(SS,OS)=  1.000000  1.000000
 Range of M.O.s used for correlation:     1    66
 NBasis=    66 NAE=     8 NBE=     8 NFC=     0 NFV=     0
 NROrb=     66 NOA=     8 NOB=     8 NVA=    58 NVB=    58
 Symmetrizing basis deriv contribution to polar:
 IMax=3 JMax=2 DiffMx= 0.00D+00
 R6APFD:  NTU= -4 IXU= 1 FactS= 1.050
 Calling FoFJK, ICntrl=      2127 FMM=F ISym2X=0 I1Cent= 0 IOpClX= 0 NMat=1 NMatS=1 NMatT=0.
 -------------------------------------------------------------------
 Center     Atomic                   Forces (Hartrees/Bohr)
 Number     Number              X              Y              Z
 -------------------------------------------------------------------
      1        6          -0.061853316   -0.007869645    0.014232542
      2        8           0.010965826    0.001395039    0.004644853
      3        1           0.022596314    0.002874959   -0.010658973
      4        1           0.028291176    0.003599648   -0.008218422
 -------------------------------------------------------------------
 Cartesian Forces:  Max     0.061853316 RMS     0.021885045
 IRC-IRC-IRC-IRC-IRC-IRC-IRC-IRC-IRC-IRC-IRC-IRC-IRC-IRC-IRC-IRC-IRC-IRC
 Pt  7 Step number   1 out of a maximum of  20
 Modified Bulirsch-Stoer Extrapolation Cycles:
    EPS =    0.000010000000000
      PEZero:  N= 2 I= 1 D=  1.14D-03 Err=  1.94D-04
      PEZero:  N= 3 I= 2 D=  1.14D-03 Err=  1.29D-04
      PEZero:  N= 3 I= 1 D=  2.28D-03 Err=  5.83D-07
 Maximum DWI energy   std dev =  0.000008511 at pt    81
 Maximum DWI gradient std dev =  0.056278693 at pt    59
 Point Number:   7          Path Number:   1
   CHANGE IN THE REACTION COORDINATE =    0.21837
   NET REACTION COORDINATE UP TO THIS POINT =    1.53057
  # OF POINTS ALONG THE PATH =   7
  # OF STEPS =   1

 Calculating another point on the path.
 IRC-IRC-IRC-IRC-IRC-IRC-IRC-IRC-IRC-IRC-IRC-IRC-IRC-IRC-IRC-IRC-IRC-IRC
                          Input orientation:                          
 ---------------------------------------------------------------------
 Center     Atomic      Atomic             Coordinates (Angstroms)
 Number     Number       Type             X           Y           Z
 ---------------------------------------------------------------------
      1          6           0       -0.086659   -0.011026   -0.543802
      2          8           0       -0.127294   -0.016196    0.582552
      3          1           0        1.171764    0.149085   -1.528194
      4          1           0        1.889484    0.240403   -1.244839
 ---------------------------------------------------------------------
                    Distance matrix (angstroms):
                    1          2          3          4
     1  C    0.000000
     2  O    1.127099   0.000000
     3  H    1.605706   2.483973   0.000000
     4  H    2.111826   2.733605   0.777014   0.000000
 Symmetry turned off by external request.
 Stoichiometry    CH2O
 Framework group  C1[X(CH2O)]
 Deg. of freedom     6
 Full point group                 C1      NOp   1
 Rotational constants (GHZ):         166.0151775          33.1060099          27.6017845
 Standard basis: 6-311+G(2d,p) (5D, 7F)
    66 basis functions,   100 primitive gaussians,    70 cartesian basis functions
     8 alpha electrons        8 beta electrons
       nuclear repulsion energy        29.9510076989 Hartrees.
 NAtoms=    4 NActive=    4 NUniq=    4 SFac= 1.00D+00 NAtFMM=   60 NAOKFM=F Big=F
 Integral buffers will be    131072 words long.
 Raffenetti 2 integral format.
 Two-electron integral symmetry is turned off.
 R6APFD:  NTU= -4 IXU= 1 FactS= 1.050
 Nuclear repulsion after empirical dispersion term =       29.9505095668 Hartrees.
 One-electron integrals computed using PRISM.
 NBasis=    66 RedAO= T EigKep=  1.17D-03  NBF=    66
 NBsUse=    66 1.00D-06 EigRej= -1.00D+00 NBFU=    66
 Initial guess from the checkpoint file:  "e6_07_irc1.chk"
 B after Tr=     0.007637    0.000972   -0.003586
         Rot=    0.999997   -0.000284    0.002228   -0.000000 Ang=  -0.26 deg.
 ExpMin= 4.38D-02 ExpMax= 8.59D+03 ExpMxC= 1.30D+03 IAcc=3 IRadAn=         5 AccDes= 0.00D+00
 Harris functional with IExCor= 3731 and IRadAn=       5 diagonalized for initial guess.
 HarFok:  IExCor= 3731 AccDes= 0.00D+00 IRadAn=         5 IDoV= 1 UseB2=F ITyADJ=14
 ICtDFT=  3500011 ScaDFX=  1.000000  1.000000  1.000000  1.000000
 FoFCou: FMM=F IPFlag=           0 FMFlag=      100000 FMFlg1=           0
         NFxFlg=           0 DoJE=T BraDBF=F KetDBF=T FulRan=T
         wScrn=  0.000000 ICntrl=       500 IOpCl=  0 I1Cent=   200000004 NGrid=           0
         NMat0=    1 NMatS0=      1 NMatT0=    0 NMatD0=    1 NMtDS0=    0 NMtDT0=    0
 Symmetry not used in FoFCou.
 Keep R1 ints in memory in canonical form, NReq=3339201.
 Requested convergence on RMS density matrix=1.00D-08 within 128 cycles.
 Requested convergence on MAX density matrix=1.00D-06.
 Requested convergence on             energy=1.00D-06.
 No special actions if energy rises.
 SCF Done:  E(RAPFD) =  -114.395462098     A.U. after    9 cycles
            NFock=  9  Conv=0.28D-08     -V/T= 2.0018
 DoSCS=F DFT=T ScalE2(SS,OS)=  1.000000  1.000000
 Range of M.O.s used for correlation:     1    66
 NBasis=    66 NAE=     8 NBE=     8 NFC=     0 NFV=     0
 NROrb=     66 NOA=     8 NOB=     8 NVA=    58 NVB=    58
 Symmetrizing basis deriv contribution to polar:
 IMax=3 JMax=2 DiffMx= 0.00D+00
 R6APFD:  NTU= -4 IXU= 1 FactS= 1.050
 Calling FoFJK, ICntrl=      2127 FMM=F ISym2X=0 I1Cent= 0 IOpClX= 0 NMat=1 NMatS=1 NMatT=0.
 -------------------------------------------------------------------
 Center     Atomic                   Forces (Hartrees/Bohr)
 Number     Number              X              Y              Z
 -------------------------------------------------------------------
      1        6          -0.048601760   -0.006183718    0.008625488
      2        8           0.008039525    0.001022835    0.006679636
      3        1           0.032609794    0.004149046   -0.002642201
      4        1           0.007952440    0.001011837   -0.012662924
 -------------------------------------------------------------------
 Cartesian Forces:  Max     0.048601760 RMS     0.018021458
 IRC-IRC-IRC-IRC-IRC-IRC-IRC-IRC-IRC-IRC-IRC-IRC-IRC-IRC-IRC-IRC-IRC-IRC
 Pt  8 Step number   1 out of a maximum of  20
 Modified Bulirsch-Stoer Extrapolation Cycles:
    EPS =    0.000010000000000
      PEZero:  N= 2 I= 1 D=  1.14D-03 Err=  2.00D-04
      PEZero:  N= 3 I= 2 D=  1.14D-03 Err=  1.33D-04
      PEZero:  N= 3 I= 1 D=  2.28D-03 Err=  1.37D-06
 Maximum DWI energy   std dev =  0.000122030 at pt    25
 Maximum DWI gradient std dev =  0.167498089 at pt    39
 Point Number:   8          Path Number:   1
   CHANGE IN THE REACTION COORDINATE =    0.21725
   NET REACTION COORDINATE UP TO THIS POINT =    1.74781
  # OF POINTS ALONG THE PATH =   8
  # OF STEPS =   1

 Calculating another point on the path.
 IRC-IRC-IRC-IRC-IRC-IRC-IRC-IRC-IRC-IRC-IRC-IRC-IRC-IRC-IRC-IRC-IRC-IRC
                          Input orientation:                          
 ---------------------------------------------------------------------
 Center     Atomic      Atomic             Coordinates (Angstroms)
 Number     Number       Type             X           Y           Z
 ---------------------------------------------------------------------
      1          6           0       -0.098287   -0.012505   -0.541953
      2          8           0       -0.126079   -0.016041    0.584363
      3          1           0        1.273243    0.161997   -1.546966
      4          1           0        1.920575    0.244359   -1.280987
 ---------------------------------------------------------------------
                    Distance matrix (angstroms):
                    1          2          3          4
     1  C    0.000000
     2  O    1.126665   0.000000
     3  H    1.709268   2.555849   0.000000
     4  H    2.165168   2.781390   0.704674   0.000000
 Symmetry turned off by external request.
 Stoichiometry    CH2O
 Framework group  C1[X(CH2O)]
 Deg. of freedom     6
 Full point group                 C1      NOp   1
 Rotational constants (GHZ):         156.7069362          32.3107717          26.7875539
 Standard basis: 6-311+G(2d,p) (5D, 7F)
    66 basis functions,   100 primitive gaussians,    70 cartesian basis functions
     8 alpha electrons        8 beta electrons
       nuclear repulsion energy        29.7982220328 Hartrees.
 NAtoms=    4 NActive=    4 NUniq=    4 SFac= 1.00D+00 NAtFMM=   60 NAOKFM=F Big=F
 Integral buffers will be    131072 words long.
 Raffenetti 2 integral format.
 Two-electron integral symmetry is turned off.
 R6APFD:  NTU= -4 IXU= 1 FactS= 1.050
 Nuclear repulsion after empirical dispersion term =       29.7976947021 Hartrees.
 One-electron integrals computed using PRISM.
 NBasis=    66 RedAO= T EigKep=  1.18D-03  NBF=    66
 NBsUse=    66 1.00D-06 EigRej= -1.00D+00 NBFU=    66
 Initial guess from the checkpoint file:  "e6_07_irc1.chk"
 B after Tr=     0.007924    0.001008   -0.004189
         Rot=    0.999998   -0.000252    0.001977   -0.000000 Ang=  -0.23 deg.
 ExpMin= 4.38D-02 ExpMax= 8.59D+03 ExpMxC= 1.30D+03 IAcc=3 IRadAn=         5 AccDes= 0.00D+00
 Harris functional with IExCor= 3731 and IRadAn=       5 diagonalized for initial guess.
 HarFok:  IExCor= 3731 AccDes= 0.00D+00 IRadAn=         5 IDoV= 1 UseB2=F ITyADJ=14
 ICtDFT=  3500011 ScaDFX=  1.000000  1.000000  1.000000  1.000000
 FoFCou: FMM=F IPFlag=           0 FMFlag=      100000 FMFlg1=           0
         NFxFlg=           0 DoJE=T BraDBF=F KetDBF=T FulRan=T
         wScrn=  0.000000 ICntrl=       500 IOpCl=  0 I1Cent=   200000004 NGrid=           0
         NMat0=    1 NMatS0=      1 NMatT0=    0 NMatD0=    1 NMtDS0=    0 NMtDT0=    0
 Symmetry not used in FoFCou.
 Keep R1 ints in memory in canonical form, NReq=3339201.
 Requested convergence on RMS density matrix=1.00D-08 within 128 cycles.
 Requested convergence on MAX density matrix=1.00D-06.
 Requested convergence on             energy=1.00D-06.
 No special actions if energy rises.
 SCF Done:  E(RAPFD) =  -114.400839440     A.U. after    9 cycles
            NFock=  9  Conv=0.58D-08     -V/T= 2.0014
 DoSCS=F DFT=T ScalE2(SS,OS)=  1.000000  1.000000
 Range of M.O.s used for correlation:     1    66
 NBasis=    66 NAE=     8 NBE=     8 NFC=     0 NFV=     0
 NROrb=     66 NOA=     8 NOB=     8 NVA=    58 NVB=    58
 Symmetrizing basis deriv contribution to polar:
 IMax=3 JMax=2 DiffMx= 0.00D+00
 R6APFD:  NTU= -4 IXU= 1 FactS= 1.050
 Calling FoFJK, ICntrl=      2127 FMM=F ISym2X=0 I1Cent= 0 IOpClX= 0 NMat=1 NMatS=1 NMatT=0.
 -------------------------------------------------------------------
 Center     Atomic                   Forces (Hartrees/Bohr)
 Number     Number              X              Y              Z
 -------------------------------------------------------------------
      1        6          -0.040161435   -0.005109882    0.009292243
      2        8           0.006186190    0.000787121    0.004221272
      3        1          -0.015057496   -0.001915807   -0.020488900
      4        1           0.049032742    0.006238568    0.006975386
 -------------------------------------------------------------------
 Cartesian Forces:  Max     0.049032742 RMS     0.020256859
 IRC-IRC-IRC-IRC-IRC-IRC-IRC-IRC-IRC-IRC-IRC-IRC-IRC-IRC-IRC-IRC-IRC-IRC
 Pt  9 Step number   1 out of a maximum of  20
 Modified Bulirsch-Stoer Extrapolation Cycles:
    EPS =    0.000010000000000
      PEZero:  N= 2 I= 1 D=  1.14D-03 Err=  2.09D-04
      PEZero:  N= 3 I= 2 D=  1.14D-03 Err=  1.39D-04
      PEZero:  N= 3 I= 1 D=  2.28D-03 Err=  2.91D-06
 Maximum DWI energy   std dev =  0.000534880 at pt    23
 Maximum DWI gradient std dev =  0.431391615 at pt    28
 Point Number:   9          Path Number:   1
   CHANGE IN THE REACTION COORDINATE =    0.21296
   NET REACTION COORDINATE UP TO THIS POINT =    1.96078
  # OF POINTS ALONG THE PATH =   9
  # OF STEPS =   1

 Calculating another point on the path.
 IRC-IRC-IRC-IRC-IRC-IRC-IRC-IRC-IRC-IRC-IRC-IRC-IRC-IRC-IRC-IRC-IRC-IRC
                          Input orientation:                          
 ---------------------------------------------------------------------
 Center     Atomic      Atomic             Coordinates (Angstroms)
 Number     Number       Type             X           Y           Z
 ---------------------------------------------------------------------
      1          6           0       -0.107755   -0.013710   -0.540476
      2          8           0       -0.125027   -0.015908    0.585033
      3          1           0        1.300276    0.165436   -1.580134
      4          1           0        2.037735    0.259265   -1.295962
 ---------------------------------------------------------------------
                    Distance matrix (angstroms):
                    1          2          3          4
     1  C    0.000000
     2  O    1.125643   0.000000
     3  H    1.759413   2.598523   0.000000
     4  H    2.290939   2.879480   0.795867   0.000000
 Symmetry turned off by external request.
 Stoichiometry    CH2O
 Framework group  C1[X(CH2O)]
 Deg. of freedom     6
 Full point group                 C1      NOp   1
 Rotational constants (GHZ):         143.1262456          31.5124048          25.8261970
 Standard basis: 6-311+G(2d,p) (5D, 7F)
    66 basis functions,   100 primitive gaussians,    70 cartesian basis functions
     8 alpha electrons        8 beta electrons
       nuclear repulsion energy        29.5201359549 Hartrees.
 NAtoms=    4 NActive=    4 NUniq=    4 SFac= 1.00D+00 NAtFMM=   60 NAOKFM=F Big=F
 Integral buffers will be    131072 words long.
 Raffenetti 2 integral format.
 Two-electron integral symmetry is turned off.
 R6APFD:  NTU= -4 IXU= 1 FactS= 1.050
 Nuclear repulsion after empirical dispersion term =       29.5195626992 Hartrees.
 One-electron integrals computed using PRISM.
 NBasis=    66 RedAO= T EigKep=  1.19D-03  NBF=    66
 NBsUse=    66 1.00D-06 EigRej= -1.00D+00 NBFU=    66
 Initial guess from the checkpoint file:  "e6_07_irc1.chk"
 B after Tr=     0.010396    0.001323   -0.005073
         Rot=    0.999996   -0.000353    0.002778   -0.000000 Ang=  -0.32 deg.
 ExpMin= 4.38D-02 ExpMax= 8.59D+03 ExpMxC= 1.30D+03 IAcc=3 IRadAn=         5 AccDes= 0.00D+00
 Harris functional with IExCor= 3731 and IRadAn=       5 diagonalized for initial guess.
 HarFok:  IExCor= 3731 AccDes= 0.00D+00 IRadAn=         5 IDoV= 1 UseB2=F ITyADJ=14
 ICtDFT=  3500011 ScaDFX=  1.000000  1.000000  1.000000  1.000000
 FoFCou: FMM=F IPFlag=           0 FMFlag=      100000 FMFlg1=           0
         NFxFlg=           0 DoJE=T BraDBF=F KetDBF=T FulRan=T
         wScrn=  0.000000 ICntrl=       500 IOpCl=  0 I1Cent=   200000004 NGrid=           0
         NMat0=    1 NMatS0=      1 NMatT0=    0 NMatD0=    1 NMtDS0=    0 NMtDT0=    0
 Symmetry not used in FoFCou.
 Keep R1 ints in memory in canonical form, NReq=3339201.
 Requested convergence on RMS density matrix=1.00D-08 within 128 cycles.
 Requested convergence on MAX density matrix=1.00D-06.
 Requested convergence on             energy=1.00D-06.
 No special actions if energy rises.
 SCF Done:  E(RAPFD) =  -114.406341525     A.U. after    9 cycles
            NFock=  9  Conv=0.49D-08     -V/T= 2.0024
 DoSCS=F DFT=T ScalE2(SS,OS)=  1.000000  1.000000
 Range of M.O.s used for correlation:     1    66
 NBasis=    66 NAE=     8 NBE=     8 NFC=     0 NFV=     0
 NROrb=     66 NOA=     8 NOB=     8 NVA=    58 NVB=    58
 Symmetrizing basis deriv contribution to polar:
 IMax=3 JMax=2 DiffMx= 0.00D+00
 R6APFD:  NTU= -4 IXU= 1 FactS= 1.050
 Calling FoFJK, ICntrl=      2127 FMM=F ISym2X=0 I1Cent= 0 IOpClX= 0 NMat=1 NMatS=1 NMatT=0.
 -------------------------------------------------------------------
 Center     Atomic                   Forces (Hartrees/Bohr)
 Number     Number              X              Y              Z
 -------------------------------------------------------------------
      1        6          -0.030377012   -0.003864927    0.005274953
      2        8           0.004506128    0.000573449    0.004847711
      3        1           0.037987307    0.004833197    0.004700779
      4        1          -0.012116423   -0.001541719   -0.014823443
 -------------------------------------------------------------------
 Cartesian Forces:  Max     0.037987307 RMS     0.015457122
 IRC-IRC-IRC-IRC-IRC-IRC-IRC-IRC-IRC-IRC-IRC-IRC-IRC-IRC-IRC-IRC-IRC-IRC
 Reaction path inflection point has been passed.
   Previous lowest Hessian eigenvalue=   -0.0356800317
   Current lowest Hessian eigenvalue =    0.0243650115
 Pt 10 Step number   1 out of a maximum of  20
 Modified Bulirsch-Stoer Extrapolation Cycles:
    EPS =    0.000010000000000
      PEZero:  N= 2 I= 1 D=  1.14D-03 Err=  2.76D-04
      PEZero:  N= 3 I= 2 D=  1.14D-03 Err=  1.85D-04
      PEZero:  N= 3 I= 1 D=  2.28D-03 Err=  2.62D-06
 Maximum DWI energy   std dev =  0.001536437 at pt    25
 Maximum DWI gradient std dev =  0.534562031 at pt    28
 Point Number:  10          Path Number:   1
   CHANGE IN THE REACTION COORDINATE =    0.21363
   NET REACTION COORDINATE UP TO THIS POINT =    2.17440
  # OF POINTS ALONG THE PATH =  10
  # OF STEPS =   1

 Calculating another point on the path.
 IRC-IRC-IRC-IRC-IRC-IRC-IRC-IRC-IRC-IRC-IRC-IRC-IRC-IRC-IRC-IRC-IRC-IRC
                          Input orientation:                          
 ---------------------------------------------------------------------
 Center     Atomic      Atomic             Coordinates (Angstroms)
 Number     Number       Type             X           Y           Z
 ---------------------------------------------------------------------
      1          6           0       -0.116995   -0.014885   -0.540718
      2          8           0       -0.121928   -0.015513    0.584818
      3          1           0        1.408203    0.179167   -1.598780
      4          1           0        2.082990    0.265021   -1.304979
 ---------------------------------------------------------------------
                    Distance matrix (angstroms):
                    1          2          3          4
     1  C    0.000000
     2  O    1.125547   0.000000
     3  H    1.866381   2.673443   0.000000
     4  H    2.345714   2.917481   0.740964   0.000000
 Symmetry turned off by external request.
 Stoichiometry    CH2O
 Framework group  C1[X(CH2O)]
 Deg. of freedom     6
 Full point group                 C1      NOp   1
 Rotational constants (GHZ):         133.9094923          30.8546951          25.0766664
 Standard basis: 6-311+G(2d,p) (5D, 7F)
    66 basis functions,   100 primitive gaussians,    70 cartesian basis functions
     8 alpha electrons        8 beta electrons
       nuclear repulsion energy        29.3707353619 Hartrees.
 NAtoms=    4 NActive=    4 NUniq=    4 SFac= 1.00D+00 NAtFMM=   60 NAOKFM=F Big=F
 Integral buffers will be    131072 words long.
 Raffenetti 2 integral format.
 Two-electron integral symmetry is turned off.
 R6APFD:  NTU= -4 IXU= 1 FactS= 1.050
 Nuclear repulsion after empirical dispersion term =       29.3701576563 Hartrees.
 One-electron integrals computed using PRISM.
 NBasis=    66 RedAO= T EigKep=  1.20D-03  NBF=    66
 NBsUse=    66 1.00D-06 EigRej= -1.00D+00 NBFU=    66
 Initial guess from the checkpoint file:  "e6_07_irc1.chk"
 B after Tr=     0.012929    0.001645   -0.005503
         Rot=    0.999989   -0.000581    0.004565    0.000000 Ang=  -0.53 deg.
 ExpMin= 4.38D-02 ExpMax= 8.59D+03 ExpMxC= 1.30D+03 IAcc=3 IRadAn=         5 AccDes= 0.00D+00
 Harris functional with IExCor= 3731 and IRadAn=       5 diagonalized for initial guess.
 HarFok:  IExCor= 3731 AccDes= 0.00D+00 IRadAn=         5 IDoV= 1 UseB2=F ITyADJ=14
 ICtDFT=  3500011 ScaDFX=  1.000000  1.000000  1.000000  1.000000
 FoFCou: FMM=F IPFlag=           0 FMFlag=      100000 FMFlg1=           0
         NFxFlg=           0 DoJE=T BraDBF=F KetDBF=T FulRan=T
         wScrn=  0.000000 ICntrl=       500 IOpCl=  0 I1Cent=   200000004 NGrid=           0
         NMat0=    1 NMatS0=      1 NMatT0=    0 NMatD0=    1 NMtDS0=    0 NMtDT0=    0
 Symmetry not used in FoFCou.
 Keep R1 ints in memory in canonical form, NReq=3339201.
 Requested convergence on RMS density matrix=1.00D-08 within 128 cycles.
 Requested convergence on MAX density matrix=1.00D-06.
 Requested convergence on             energy=1.00D-06.
 No special actions if energy rises.
 SCF Done:  E(RAPFD) =  -114.411815095     A.U. after    9 cycles
            NFock=  9  Conv=0.28D-08     -V/T= 2.0022
 DoSCS=F DFT=T ScalE2(SS,OS)=  1.000000  1.000000
 Range of M.O.s used for correlation:     1    66
 NBasis=    66 NAE=     8 NBE=     8 NFC=     0 NFV=     0
 NROrb=     66 NOA=     8 NOB=     8 NVA=    58 NVB=    58
 Symmetrizing basis deriv contribution to polar:
 IMax=3 JMax=2 DiffMx= 0.00D+00
 R6APFD:  NTU= -4 IXU= 1 FactS= 1.050
 Calling FoFJK, ICntrl=      2127 FMM=F ISym2X=0 I1Cent= 0 IOpClX= 0 NMat=1 NMatS=1 NMatT=0.
 -------------------------------------------------------------------
 Center     Atomic                   Forces (Hartrees/Bohr)
 Number     Number              X              Y              Z
 -------------------------------------------------------------------
      1        6          -0.024164062   -0.003074383    0.005233543
      2        8           0.003285675    0.000418203    0.003065394
      3        1           0.006605391    0.000840340   -0.006036580
      4        1           0.014272997    0.001815840   -0.002262356
 -------------------------------------------------------------------
 Cartesian Forces:  Max     0.024164062 RMS     0.008822427
 IRC-IRC-IRC-IRC-IRC-IRC-IRC-IRC-IRC-IRC-IRC-IRC-IRC-IRC-IRC-IRC-IRC-IRC
 Pt 11 Step number   1 out of a maximum of  20
 Modified Bulirsch-Stoer Extrapolation Cycles:
    EPS =    0.000010000000000
      PEZero:  N= 2 I= 1 D=  1.14D-03 Err=  1.31D-04
      PEZero:  N= 3 I= 2 D=  1.14D-03 Err=  8.76D-05
      PEZero:  N= 3 I= 1 D=  2.28D-03 Err=  3.16D-07
 Maximum DWI energy   std dev =  0.000066723 at pt    78
 Maximum DWI gradient std dev =  0.134683523 at pt    63
 Point Number:  11          Path Number:   1
   CHANGE IN THE REACTION COORDINATE =    0.21839
   NET REACTION COORDINATE UP TO THIS POINT =    2.39279
  # OF POINTS ALONG THE PATH =  11
  # OF STEPS =   1

 Calculating another point on the path.
 IRC-IRC-IRC-IRC-IRC-IRC-IRC-IRC-IRC-IRC-IRC-IRC-IRC-IRC-IRC-IRC-IRC-IRC
                          Input orientation:                          
 ---------------------------------------------------------------------
 Center     Atomic      Atomic             Coordinates (Angstroms)
 Number     Number       Type             X           Y           Z
 ---------------------------------------------------------------------
      1          6           0       -0.131794   -0.016768   -0.538285
      2          8           0       -0.120824   -0.015372    0.586687
      3          1           0        1.473880    0.187523   -1.619482
      4          1           0        2.154943    0.274175   -1.334503
 ---------------------------------------------------------------------
                    Distance matrix (angstroms):
                    1          2          3          4
     1  C    0.000000
     2  O    1.125026   0.000000
     3  H    1.946513   2.729730   0.000000
     4  H    2.438807   2.992311   0.743350   0.000000
 Symmetry turned off by external request.
 Stoichiometry    CH2O
 Framework group  C1[X(CH2O)]
 Deg. of freedom     6
 Full point group                 C1      NOp   1
 Rotational constants (GHZ):         124.8980309          30.0764104          24.2393804
 Standard basis: 6-311+G(2d,p) (5D, 7F)
    66 basis functions,   100 primitive gaussians,    70 cartesian basis functions
     8 alpha electrons        8 beta electrons
       nuclear repulsion energy        29.1882533550 Hartrees.
 NAtoms=    4 NActive=    4 NUniq=    4 SFac= 1.00D+00 NAtFMM=   60 NAOKFM=F Big=F
 Integral buffers will be    131072 words long.
 Raffenetti 2 integral format.
 Two-electron integral symmetry is turned off.
 R6APFD:  NTU= -4 IXU= 1 FactS= 1.050
 Nuclear repulsion after empirical dispersion term =       29.1876785138 Hartrees.
 One-electron integrals computed using PRISM.
 NBasis=    66 RedAO= T EigKep=  1.21D-03  NBF=    66
 NBsUse=    66 1.00D-06 EigRej= -1.00D+00 NBFU=    66
 Initial guess from the checkpoint file:  "e6_07_irc1.chk"
 B after Tr=     0.006263    0.000797   -0.003131
         Rot=    0.999999   -0.000201    0.001582    0.000000 Ang=  -0.18 deg.
 ExpMin= 4.38D-02 ExpMax= 8.59D+03 ExpMxC= 1.30D+03 IAcc=3 IRadAn=         5 AccDes= 0.00D+00
 Harris functional with IExCor= 3731 and IRadAn=       5 diagonalized for initial guess.
 HarFok:  IExCor= 3731 AccDes= 0.00D+00 IRadAn=         5 IDoV= 1 UseB2=F ITyADJ=14
 ICtDFT=  3500011 ScaDFX=  1.000000  1.000000  1.000000  1.000000
 FoFCou: FMM=F IPFlag=           0 FMFlag=      100000 FMFlg1=           0
         NFxFlg=           0 DoJE=T BraDBF=F KetDBF=T FulRan=T
         wScrn=  0.000000 ICntrl=       500 IOpCl=  0 I1Cent=   200000004 NGrid=           0
         NMat0=    1 NMatS0=      1 NMatT0=    0 NMatD0=    1 NMtDS0=    0 NMtDT0=    0
 Symmetry not used in FoFCou.
 Keep R1 ints in memory in canonical form, NReq=3339201.
 Requested convergence on RMS density matrix=1.00D-08 within 128 cycles.
 Requested convergence on MAX density matrix=1.00D-06.
 Requested convergence on             energy=1.00D-06.
 No special actions if energy rises.
 SCF Done:  E(RAPFD) =  -114.415239615     A.U. after    8 cycles
            NFock=  8  Conv=0.63D-08     -V/T= 2.0024
 DoSCS=F DFT=T ScalE2(SS,OS)=  1.000000  1.000000
 Range of M.O.s used for correlation:     1    66
 NBasis=    66 NAE=     8 NBE=     8 NFC=     0 NFV=     0
 NROrb=     66 NOA=     8 NOB=     8 NVA=    58 NVB=    58
 Symmetrizing basis deriv contribution to polar:
 IMax=3 JMax=2 DiffMx= 0.00D+00
 R6APFD:  NTU= -4 IXU= 1 FactS= 1.050
 Calling FoFJK, ICntrl=      2127 FMM=F ISym2X=0 I1Cent= 0 IOpClX= 0 NMat=1 NMatS=1 NMatT=0.
 -------------------------------------------------------------------
 Center     Atomic                   Forces (Hartrees/Bohr)
 Number     Number              X              Y              Z
 -------------------------------------------------------------------
      1        6          -0.018314484   -0.002330058    0.003686335
      2        8           0.002274618    0.000289527    0.002852651
      3        1           0.006167704    0.000784619   -0.004333399
      4        1           0.009872162    0.001255912   -0.002205587
 -------------------------------------------------------------------
 Cartesian Forces:  Max     0.018314484 RMS     0.006640595
 IRC-IRC-IRC-IRC-IRC-IRC-IRC-IRC-IRC-IRC-IRC-IRC-IRC-IRC-IRC-IRC-IRC-IRC
 Pt 12 Step number   1 out of a maximum of  20
 Modified Bulirsch-Stoer Extrapolation Cycles:
    EPS =    0.000010000000000
      PEZero:  N= 2 I= 1 D=  1.14D-03 Err=  4.56D-05
      PEZero:  N= 3 I= 2 D=  1.14D-03 Err=  3.03D-05
      PEZero:  N= 3 I= 1 D=  2.28D-03 Err=  3.35D-07
 Maximum DWI energy   std dev =  0.000014978 at pt    36
 Maximum DWI gradient std dev =  0.076639601 at pt    30
 Point Number:  12          Path Number:   1
   CHANGE IN THE REACTION COORDINATE =    0.21895
   NET REACTION COORDINATE UP TO THIS POINT =    2.61174
  # OF POINTS ALONG THE PATH =  12
  # OF STEPS =   1

 Calculating another point on the path.
 IRC-IRC-IRC-IRC-IRC-IRC-IRC-IRC-IRC-IRC-IRC-IRC-IRC-IRC-IRC-IRC-IRC-IRC
                          Input orientation:                          
 ---------------------------------------------------------------------
 Center     Atomic      Atomic             Coordinates (Angstroms)
 Number     Number       Type             X           Y           Z
 ---------------------------------------------------------------------
      1          6           0       -0.145815   -0.018552   -0.536202
      2          8           0       -0.119739   -0.015234    0.588582
      3          1           0        1.539444    0.195863   -1.640575
      4          1           0        2.226443    0.283271   -1.363698
 ---------------------------------------------------------------------
                    Distance matrix (angstroms):
                    1          2          3          4
     1  C    0.000000
     2  O    1.125091   0.000000
     3  H    2.026256   2.786861   0.000000
     4  H    2.530505   3.066769   0.745834   0.000000
 Symmetry turned off by external request.
 Stoichiometry    CH2O
 Framework group  C1[X(CH2O)]
 Deg. of freedom     6
 Full point group                 C1      NOp   1
 Rotational constants (GHZ):         117.1686954          29.2799766          23.4259322
 Standard basis: 6-311+G(2d,p) (5D, 7F)
    66 basis functions,   100 primitive gaussians,    70 cartesian basis functions
     8 alpha electrons        8 beta electrons
       nuclear repulsion energy        29.0070684201 Hartrees.
 NAtoms=    4 NActive=    4 NUniq=    4 SFac= 1.00D+00 NAtFMM=   60 NAOKFM=F Big=F
 Integral buffers will be    131072 words long.
 Raffenetti 2 integral format.
 Two-electron integral symmetry is turned off.
 R6APFD:  NTU= -4 IXU= 1 FactS= 1.050
 Nuclear repulsion after empirical dispersion term =       29.0064879351 Hartrees.
 One-electron integrals computed using PRISM.
 NBasis=    66 RedAO= T EigKep=  1.22D-03  NBF=    66
 NBsUse=    66 1.00D-06 EigRej= -1.00D+00 NBFU=    66
 Initial guess from the checkpoint file:  "e6_07_irc1.chk"
 B after Tr=     0.006722    0.000855   -0.003384
         Rot=    0.999999   -0.000201    0.001581    0.000000 Ang=  -0.18 deg.
 ExpMin= 4.38D-02 ExpMax= 8.59D+03 ExpMxC= 1.30D+03 IAcc=3 IRadAn=         5 AccDes= 0.00D+00
 Harris functional with IExCor= 3731 and IRadAn=       5 diagonalized for initial guess.
 HarFok:  IExCor= 3731 AccDes= 0.00D+00 IRadAn=         5 IDoV= 1 UseB2=F ITyADJ=14
 ICtDFT=  3500011 ScaDFX=  1.000000  1.000000  1.000000  1.000000
 FoFCou: FMM=F IPFlag=           0 FMFlag=      100000 FMFlg1=           0
         NFxFlg=           0 DoJE=T BraDBF=F KetDBF=T FulRan=T
         wScrn=  0.000000 ICntrl=       500 IOpCl=  0 I1Cent=   200000004 NGrid=           0
         NMat0=    1 NMatS0=      1 NMatT0=    0 NMatD0=    1 NMtDS0=    0 NMtDT0=    0
 Symmetry not used in FoFCou.
 Keep R1 ints in memory in canonical form, NReq=3339201.
 Requested convergence on RMS density matrix=1.00D-08 within 128 cycles.
 Requested convergence on MAX density matrix=1.00D-06.
 Requested convergence on             energy=1.00D-06.
 No special actions if energy rises.
 SCF Done:  E(RAPFD) =  -114.417846244     A.U. after    8 cycles
            NFock=  8  Conv=0.45D-08     -V/T= 2.0025
 DoSCS=F DFT=T ScalE2(SS,OS)=  1.000000  1.000000
 Range of M.O.s used for correlation:     1    66
 NBasis=    66 NAE=     8 NBE=     8 NFC=     0 NFV=     0
 NROrb=     66 NOA=     8 NOB=     8 NVA=    58 NVB=    58
 Symmetrizing basis deriv contribution to polar:
 IMax=3 JMax=2 DiffMx= 0.00D+00
 R6APFD:  NTU= -4 IXU= 1 FactS= 1.050
 Calling FoFJK, ICntrl=      2127 FMM=F ISym2X=0 I1Cent= 0 IOpClX= 0 NMat=1 NMatS=1 NMatT=0.
 -------------------------------------------------------------------
 Center     Atomic                   Forces (Hartrees/Bohr)
 Number     Number              X              Y              Z
 -------------------------------------------------------------------
      1        6          -0.014036730   -0.001785750    0.003695303
      2        8           0.001528648    0.000194542    0.001587866
      3        1           0.006376859    0.000811226   -0.003049238
      4        1           0.006131224    0.000779982   -0.002233931
 -------------------------------------------------------------------
 Cartesian Forces:  Max     0.014036730 RMS     0.005103764
 IRC-IRC-IRC-IRC-IRC-IRC-IRC-IRC-IRC-IRC-IRC-IRC-IRC-IRC-IRC-IRC-IRC-IRC
 Pt 13 Step number   1 out of a maximum of  20
 Modified Bulirsch-Stoer Extrapolation Cycles:
    EPS =    0.000010000000000
      PEZero:  N= 2 I= 1 D=  1.14D-03 Err=  2.05D-05
      PEZero:  N= 3 I= 2 D=  1.14D-03 Err=  1.38D-05
      PEZero:  N= 3 I= 1 D=  2.28D-03 Err=  1.11D-07
 Maximum DWI energy   std dev =  0.000014899 at pt    35
 Maximum DWI gradient std dev =  0.017873674 at pt    60
 Point Number:  13          Path Number:   1
   CHANGE IN THE REACTION COORDINATE =    0.21899
   NET REACTION COORDINATE UP TO THIS POINT =    2.83073
  # OF POINTS ALONG THE PATH =  13
  # OF STEPS =   1

 Calculating another point on the path.
 IRC-IRC-IRC-IRC-IRC-IRC-IRC-IRC-IRC-IRC-IRC-IRC-IRC-IRC-IRC-IRC-IRC-IRC
                          Input orientation:                          
 ---------------------------------------------------------------------
 Center     Atomic      Atomic             Coordinates (Angstroms)
 Number     Number       Type             X           Y           Z
 ---------------------------------------------------------------------
      1          6           0       -0.158839   -0.020209   -0.534103
      2          8           0       -0.118680   -0.015100    0.590019
      3          1           0        1.608759    0.204681   -1.661637
      4          1           0        2.297347    0.292291   -1.390814
 ---------------------------------------------------------------------
                    Distance matrix (angstroms):
                    1          2          3          4
     1  C    0.000000
     2  O    1.124850   0.000000
     3  H    2.108627   2.846454   0.000000
     4  H    2.620011   3.139327   0.745100   0.000000
 Symmetry turned off by external request.
 Stoichiometry    CH2O
 Framework group  C1[X(CH2O)]
 Deg. of freedom     6
 Full point group                 C1      NOp   1
 Rotational constants (GHZ):         110.5230419          28.4839287          22.6472847
 Standard basis: 6-311+G(2d,p) (5D, 7F)
    66 basis functions,   100 primitive gaussians,    70 cartesian basis functions
     8 alpha electrons        8 beta electrons
       nuclear repulsion energy        28.8448236951 Hartrees.
 NAtoms=    4 NActive=    4 NUniq=    4 SFac= 1.00D+00 NAtFMM=   60 NAOKFM=F Big=F
 Integral buffers will be    131072 words long.
 Raffenetti 2 integral format.
 Two-electron integral symmetry is turned off.
 R6APFD:  NTU= -4 IXU= 1 FactS= 1.050
 Nuclear repulsion after empirical dispersion term =       28.8442198126 Hartrees.
 One-electron integrals computed using PRISM.
 NBasis=    66 RedAO= T EigKep=  1.22D-03  NBF=    66
 NBsUse=    66 1.00D-06 EigRej= -1.00D+00 NBFU=    66
 Initial guess from the checkpoint file:  "e6_07_irc1.chk"
 B after Tr=     0.007652    0.000974   -0.003732
         Rot=    0.999998   -0.000243    0.001909    0.000000 Ang=  -0.22 deg.
 ExpMin= 4.38D-02 ExpMax= 8.59D+03 ExpMxC= 1.30D+03 IAcc=3 IRadAn=         5 AccDes= 0.00D+00
 Harris functional with IExCor= 3731 and IRadAn=       5 diagonalized for initial guess.
 HarFok:  IExCor= 3731 AccDes= 0.00D+00 IRadAn=         5 IDoV= 1 UseB2=F ITyADJ=14
 ICtDFT=  3500011 ScaDFX=  1.000000  1.000000  1.000000  1.000000
 FoFCou: FMM=F IPFlag=           0 FMFlag=      100000 FMFlg1=           0
         NFxFlg=           0 DoJE=T BraDBF=F KetDBF=T FulRan=T
         wScrn=  0.000000 ICntrl=       500 IOpCl=  0 I1Cent=   200000004 NGrid=           0
         NMat0=    1 NMatS0=      1 NMatT0=    0 NMatD0=    1 NMtDS0=    0 NMtDT0=    0
 Symmetry not used in FoFCou.
 Keep R1 ints in memory in canonical form, NReq=3339201.
 Requested convergence on RMS density matrix=1.00D-08 within 128 cycles.
 Requested convergence on MAX density matrix=1.00D-06.
 Requested convergence on             energy=1.00D-06.
 No special actions if energy rises.
 SCF Done:  E(RAPFD) =  -114.419860016     A.U. after    8 cycles
            NFock=  8  Conv=0.42D-08     -V/T= 2.0026
 DoSCS=F DFT=T ScalE2(SS,OS)=  1.000000  1.000000
 Range of M.O.s used for correlation:     1    66
 NBasis=    66 NAE=     8 NBE=     8 NFC=     0 NFV=     0
 NROrb=     66 NOA=     8 NOB=     8 NVA=    58 NVB=    58
 Symmetrizing basis deriv contribution to polar:
 IMax=3 JMax=2 DiffMx= 0.00D+00
 R6APFD:  NTU= -4 IXU= 1 FactS= 1.050
[...]
 No special actions if energy rises.
 SCF Done:  E(RAPFD) =  -114.439056854     A.U. after    9 cycles
            NFock=  9  Conv=0.13D-08     -V/T= 2.0036
 DoSCS=F DFT=T ScalE2(SS,OS)=  1.000000  1.000000
 Range of M.O.s used for correlation:     1    66
 NBasis=    66 NAE=     8 NBE=     8 NFC=     0 NFV=     0
 NROrb=     66 NOA=     8 NOB=     8 NVA=    58 NVB=    58
 Symmetrizing basis deriv contribution to polar:
 IMax=3 JMax=2 DiffMx= 0.00D+00
 R6APFD:  NTU= -4 IXU= 1 FactS= 1.050
 Calling FoFJK, ICntrl=      2127 FMM=F ISym2X=0 I1Cent= 0 IOpClX= 0 NMat=1 NMatS=1 NMatT=0.
 -------------------------------------------------------------------
 Center     Atomic                   Forces (Hartrees/Bohr)
 Number     Number              X              Y              Z
 -------------------------------------------------------------------
      1        6           0.031502455    0.004008195   -0.003156336
      2        8          -0.019511948   -0.002482752   -0.012658792
      3        1          -0.012130281   -0.001543247    0.019602587
      4        1           0.000139774    0.000017804   -0.003787459
 -------------------------------------------------------------------
 Cartesian Forces:  Max     0.031502455 RMS     0.013271867
 IRC-IRC-IRC-IRC-IRC-IRC-IRC-IRC-IRC-IRC-IRC-IRC-IRC-IRC-IRC-IRC-IRC-IRC
 Pt 33 Step number   1 out of a maximum of  20
 Modified Bulirsch-Stoer Extrapolation Cycles:
    EPS =    0.000010000000000
      PEZero:  N= 2 I= 1 D=  1.14D-03 Err=  9.21D-05
      PEZero:  N= 3 I= 2 D=  1.14D-03 Err=  6.13D-05
      PEZero:  N= 3 I= 1 D=  2.27D-03 Err=  4.27D-07
 Maximum DWI energy   std dev =  0.000040701 at pt    38
 Maximum DWI gradient std dev =  0.137950156 at pt    61
 Point Number:  10          Path Number:   2
   CHANGE IN THE REACTION COORDINATE =    0.21761
   NET REACTION COORDINATE UP TO THIS POINT =    2.18640
  # OF POINTS ALONG THE PATH =  33
  # OF STEPS =   1

 Calculating another point on the path.
 IRC-IRC-IRC-IRC-IRC-IRC-IRC-IRC-IRC-IRC-IRC-IRC-IRC-IRC-IRC-IRC-IRC-IRC
                          Input orientation:                          
 ---------------------------------------------------------------------
 Center     Atomic      Atomic             Coordinates (Angstroms)
 Number     Number       Type             X           Y           Z
 ---------------------------------------------------------------------
      1          6           0        0.182800    0.023258   -0.567463
      2          8           0       -0.192032   -0.024433    0.568636
      3          1           0       -0.457484   -0.058205   -1.489923
      4          1           0        1.257864    0.160040   -0.761978
 ---------------------------------------------------------------------
                    Distance matrix (angstroms):
                    1          2          3          4
     1  C    0.000000
     2  O    1.197286   0.000000
     3  H    1.125847   2.075878   0.000000
     4  H    1.101048   1.976552   1.876154   0.000000
 Symmetry turned off by external request.
 Stoichiometry    CH2O
 Framework group  C1[X(CH2O)]
 Deg. of freedom     6
 Full point group                 C1      NOp   1
 Rotational constants (GHZ):         286.3804481          39.0700526          34.3797264
 Standard basis: 6-311+G(2d,p) (5D, 7F)
    66 basis functions,   100 primitive gaussians,    70 cartesian basis functions
     8 alpha electrons        8 beta electrons
       nuclear repulsion energy        31.3821027751 Hartrees.
 NAtoms=    4 NActive=    4 NUniq=    4 SFac= 1.00D+00 NAtFMM=   60 NAOKFM=F Big=F
 Integral buffers will be    131072 words long.
 Raffenetti 2 integral format.
 Two-electron integral symmetry is turned off.
 R6APFD:  NTU= -4 IXU= 1 FactS= 1.050
 Nuclear repulsion after empirical dispersion term =       31.3821019800 Hartrees.
 One-electron integrals computed using PRISM.
 NBasis=    66 RedAO= T EigKep=  1.59D-03  NBF=    66
 NBsUse=    66 1.00D-06 EigRej= -1.00D+00 NBFU=    66
 Initial guess from the checkpoint file:  "e6_07_irc1.chk"
 B after Tr=    -0.006568   -0.000836    0.004099
         Rot=    0.999992    0.000519   -0.004077    0.000000 Ang=   0.47 deg.
 ExpMin= 4.38D-02 ExpMax= 8.59D+03 ExpMxC= 1.30D+03 IAcc=3 IRadAn=         5 AccDes= 0.00D+00
 Harris functional with IExCor= 3731 and IRadAn=       5 diagonalized for initial guess.
 HarFok:  IExCor= 3731 AccDes= 0.00D+00 IRadAn=         5 IDoV= 1 UseB2=F ITyADJ=14
 ICtDFT=  3500011 ScaDFX=  1.000000  1.000000  1.000000  1.000000
 FoFCou: FMM=F IPFlag=           0 FMFlag=      100000 FMFlg1=           0
         NFxFlg=           0 DoJE=T BraDBF=F KetDBF=T FulRan=T
         wScrn=  0.000000 ICntrl=       500 IOpCl=  0 I1Cent=   200000004 NGrid=           0
         NMat0=    1 NMatS0=      1 NMatT0=    0 NMatD0=    1 NMtDS0=    0 NMtDT0=    0
 Symmetry not used in FoFCou.
 Keep R1 ints in memory in canonical form, NReq=3339201.
 Requested convergence on RMS density matrix=1.00D-08 within 128 cycles.
 Requested convergence on MAX density matrix=1.00D-06.
 Requested convergence on             energy=1.00D-06.
 No special actions if energy rises.
 SCF Done:  E(RAPFD) =  -114.442820319     A.U. after    8 cycles
            NFock=  8  Conv=0.93D-08     -V/T= 2.0034
 DoSCS=F DFT=T ScalE2(SS,OS)=  1.000000  1.000000
 Range of M.O.s used for correlation:     1    66
 NBasis=    66 NAE=     8 NBE=     8 NFC=     0 NFV=     0
 NROrb=     66 NOA=     8 NOB=     8 NVA=    58 NVB=    58
 Symmetrizing basis deriv contribution to polar:
 IMax=3 JMax=2 DiffMx= 0.00D+00
 R6APFD:  NTU= -4 IXU= 1 FactS= 1.050
 Calling FoFJK, ICntrl=      2127 FMM=F ISym2X=0 I1Cent= 0 IOpClX= 0 NMat=1 NMatS=1 NMatT=0.
 -------------------------------------------------------------------
 Center     Atomic                   Forces (Hartrees/Bohr)
 Number     Number              X              Y              Z
 -------------------------------------------------------------------
      1        6           0.007006843    0.000891772   -0.002358584
      2        8          -0.010593757   -0.001348092   -0.004919671
      3        1          -0.001058384   -0.000134656    0.012610712
      4        1           0.004645297    0.000590976   -0.005332456
 -------------------------------------------------------------------
 Cartesian Forces:  Max     0.012610712 RMS     0.005803977
 IRC-IRC-IRC-IRC-IRC-IRC-IRC-IRC-IRC-IRC-IRC-IRC-IRC-IRC-IRC-IRC-IRC-IRC
 Pt 34 Step number   1 out of a maximum of  20
 Modified Bulirsch-Stoer Extrapolation Cycles:
    EPS =    0.000010000000000
      PEZero:  N= 2 I= 1 D=  1.14D-03 Err=  2.47D-04
      PEZero:  N= 3 I= 2 D=  1.14D-03 Err=  1.64D-04
      PEZero:  N= 3 I= 1 D=  2.28D-03 Err=  1.06D-06
 Maximum DWI energy   std dev =  0.000034177 at pt    48
 Maximum DWI gradient std dev =  0.208690983 at pt    31
 Point Number:  11          Path Number:   2
   CHANGE IN THE REACTION COORDINATE =    0.21731
   NET REACTION COORDINATE UP TO THIS POINT =    2.40370
  # OF POINTS ALONG THE PATH =  34
  # OF STEPS =   1

 Calculating another point on the path.
 IRC-IRC-IRC-IRC-IRC-IRC-IRC-IRC-IRC-IRC-IRC-IRC-IRC-IRC-IRC-IRC-IRC-IRC
                          Input orientation:                          
 ---------------------------------------------------------------------
 Center     Atomic      Atomic             Coordinates (Angstroms)
 Number     Number       Type             X           Y           Z
 ---------------------------------------------------------------------
      1          6           0        0.188343    0.023964   -0.560619
      2          8           0       -0.204035   -0.025960    0.567065
      3          1           0       -0.518588   -0.065979   -1.442926
      4          1           0        1.282040    0.163115   -0.819234
 ---------------------------------------------------------------------
                    Distance matrix (angstroms):
                    1          2          3          4
     1  C    0.000000
     2  O    1.195042   0.000000
     3  H    1.134154   2.034849   0.000000
     4  H    1.132439   2.041077   1.919306   0.000000
 Symmetry turned off by external request.
 Stoichiometry    CH2O
 Framework group  C1[X(CH2O)]
 Deg. of freedom     6
 Full point group                 C1      NOp   1
 Rotational constants (GHZ):         272.2581966          39.1787001          34.2500273
 Standard basis: 6-311+G(2d,p) (5D, 7F)
    66 basis functions,   100 primitive gaussians,    70 cartesian basis functions
     8 alpha electrons        8 beta electrons
       nuclear repulsion energy        31.2884334145 Hartrees.
 NAtoms=    4 NActive=    4 NUniq=    4 SFac= 1.00D+00 NAtFMM=   60 NAOKFM=F Big=F
 Integral buffers will be    131072 words long.
 Raffenetti 2 integral format.
 Two-electron integral symmetry is turned off.
 R6APFD:  NTU= -4 IXU= 1 FactS= 1.050
 Nuclear repulsion after empirical dispersion term =       31.2884334145 Hartrees.
 One-electron integrals computed using PRISM.
 NBasis=    66 RedAO= T EigKep=  1.60D-03  NBF=    66
 NBsUse=    66 1.00D-06 EigRej= -1.00D+00 NBFU=    66
 Initial guess from the checkpoint file:  "e6_07_irc1.chk"
 B after Tr=    -0.010734   -0.001366    0.002495
         Rot=    0.999992    0.000505   -0.003976    0.000001 Ang=   0.46 deg.
 ExpMin= 4.38D-02 ExpMax= 8.59D+03 ExpMxC= 1.30D+03 IAcc=3 IRadAn=         5 AccDes= 0.00D+00
 Harris functional with IExCor= 3731 and IRadAn=       5 diagonalized for initial guess.
 HarFok:  IExCor= 3731 AccDes= 0.00D+00 IRadAn=         5 IDoV= 1 UseB2=F ITyADJ=14
 ICtDFT=  3500011 ScaDFX=  1.000000  1.000000  1.000000  1.000000
 FoFCou: FMM=F IPFlag=           0 FMFlag=      100000 FMFlg1=           0
         NFxFlg=           0 DoJE=T BraDBF=F KetDBF=T FulRan=T
         wScrn=  0.000000 ICntrl=       500 IOpCl=  0 I1Cent=   200000004 NGrid=           0
         NMat0=    1 NMatS0=      1 NMatT0=    0 NMatD0=    1 NMtDS0=    0 NMtDT0=    0
 Symmetry not used in FoFCou.
 Keep R1 ints in memory in canonical form, NReq=3339201.
 Requested convergence on RMS density matrix=1.00D-08 within 128 cycles.
 Requested convergence on MAX density matrix=1.00D-06.
 Requested convergence on             energy=1.00D-06.
 No special actions if energy rises.
 SCF Done:  E(RAPFD) =  -114.443369750     A.U. after    9 cycles
            NFock=  9  Conv=0.17D-08     -V/T= 2.0037
 DoSCS=F DFT=T ScalE2(SS,OS)=  1.000000  1.000000
 Range of M.O.s used for correlation:     1    66
 NBasis=    66 NAE=     8 NBE=     8 NFC=     0 NFV=     0
 NROrb=     66 NOA=     8 NOB=     8 NVA=    58 NVB=    58
 Symmetrizing basis deriv contribution to polar:
 IMax=3 JMax=2 DiffMx= 0.00D+00
 R6APFD:  NTU= -4 IXU= 1 FactS= 1.050
 Calling FoFJK, ICntrl=      2127 FMM=F ISym2X=0 I1Cent= 0 IOpClX= 0 NMat=1 NMatS=1 NMatT=0.
 -------------------------------------------------------------------
 Center     Atomic                   Forces (Hartrees/Bohr)
 Number     Number              X              Y              Z
 -------------------------------------------------------------------
      1        6           0.002344855    0.000298080   -0.013929312
      2        8           0.001159922    0.000147563    0.000005194
      3        1           0.008770640    0.001116064    0.010264473
      4        1          -0.012275417   -0.001561707    0.003659645
 -------------------------------------------------------------------
 Cartesian Forces:  Max     0.013929312 RMS     0.006776350
 IRC-IRC-IRC-IRC-IRC-IRC-IRC-IRC-IRC-IRC-IRC-IRC-IRC-IRC-IRC-IRC-IRC-IRC
 Pt 35 Step number   1 out of a maximum of  20
 Modified Bulirsch-Stoer Extrapolation Cycles:
    EPS =    0.000010000000000
      PEZero:  N= 2 I= 1 D=  1.11D-03 Err=  1.51D-03
      PEZero:  N= 3 I= 2 D=  1.11D-03 Err=  1.01D-03
      PEZero:  N= 3 I= 1 D=  2.22D-03 Err=  3.50D-06
 Maximum DWI energy   std dev =  0.000145493 at pt    -1
 Maximum DWI gradient std dev =  0.831063315 at pt    34
 Point Number:  12          Path Number:   2
   CHANGE IN THE REACTION COORDINATE =    0.19883
   NET REACTION COORDINATE UP TO THIS POINT =    2.60253
  # OF POINTS ALONG THE PATH =  35
  # OF STEPS =   1

 Calculating another point on the path.
 PES minimum detected within a second-order step.
 Calculation of REVERSE path complete.
 Reaction path calculation complete.
 
 Energies reported relative to the TS energy of        -114.307224
 --------------------------------------------------------------------------
    Summary of reaction path following
 --------------------------------------------------------------------------
                        Energy    RxCoord
   1                   -0.13706  -2.60253
   2                   -0.13573  -2.40370
   3                   -0.13198  -2.18640
   4                   -0.12520  -1.96878
   5                   -0.11482  -1.75091
   6                   -0.10039  -1.53229
   7                   -0.08280  -1.31342
   8                   -0.06365  -1.09452
   9                   -0.04449  -0.87562
  10                   -0.02694  -0.65672
  11                   -0.01265  -0.43782
  12                   -0.00327  -0.21893
  13                    0.00000   0.00000
  14                   -0.00329   0.21894
  15                   -0.01268   0.43784
  16                   -0.02670   0.65677
  17                   -0.04270   0.87551
  18                   -0.05757   1.09358
  19                   -0.06994   1.31219
  20                   -0.08020   1.53057
  21                   -0.08873   1.74781
  22                   -0.09591   1.96078
  23                   -0.10045   2.17440
  24                   -0.10467   2.39279
  25                   -0.10802   2.61174
  26                   -0.11062   2.83073
  27                   -0.11264   3.04973
  28                   -0.11417   3.26872
  29                   -0.11532   3.48771
  30                   -0.11618   3.70666
  31                   -0.11680   3.92553
  32                   -0.11724   4.14417
  33                   -0.11753   4.36217
  34                   -0.11773   4.57863
  35                   -0.11786   4.76418
  36                   -0.11789   4.80537
 --------------------------------------------------------------------------
 
 Total number of points:                   35
 Total number of gradient calculations:    35
 Total number of Hessian calculations:      0
 IRC-IRC-IRC-IRC-IRC-IRC-IRC-IRC-IRC-IRC-IRC-IRC-IRC-IRC-IRC-IRC-IRC-IRC
                          Input orientation:                          
 ---------------------------------------------------------------------
 Center     Atomic      Atomic             Coordinates (Angstroms)
 Number     Number       Type             X           Y           Z
 ---------------------------------------------------------------------
      1          6           0        0.188343    0.023964   -0.560619
      2          8           0       -0.204035   -0.025960    0.567065
      3          1           0       -0.518588   -0.065979   -1.442926
      4          1           0        1.282040    0.163115   -0.819234
 ---------------------------------------------------------------------
                    Distance matrix (angstroms):
                    1          2          3          4
     1  C    0.000000
     2  O    1.195042   0.000000
     3  H    1.134154   2.034849   0.000000
     4  H    1.132439   2.041077   1.919306   0.000000
 Symmetry turned off by external request.
 Stoichiometry    CH2O
 Framework group  C1[X(CH2O)]
 Deg. of freedom     6
 Full point group                 C1      NOp   1
 Rotational constants (GHZ):         272.2581966          39.1787001          34.2500273

 **********************************************************************

            Population analysis using the SCF Density.

 **********************************************************************

 Alpha  occ. eigenvalues --  -19.19240 -10.30310  -1.09592  -0.64689  -0.50949
 Alpha  occ. eigenvalues --   -0.47327  -0.42297  -0.28508
 Alpha virt. eigenvalues --   -0.05444   0.01835   0.04985   0.05272   0.07431
 Alpha virt. eigenvalues --    0.13189   0.18808   0.19869   0.23400   0.24261
 Alpha virt. eigenvalues --    0.27842   0.33107   0.45983   0.47435   0.52201
 Alpha virt. eigenvalues --    0.57218   0.59524   0.62220   0.79397   0.79451
 Alpha virt. eigenvalues --    0.84921   0.97067   0.98062   1.07753   1.14085
 Alpha virt. eigenvalues --    1.25312   1.42432   1.45572   1.51246   1.61210
 Alpha virt. eigenvalues --    1.65559   1.90082   1.92178   2.06882   2.12341
 Alpha virt. eigenvalues --    2.26389   2.27312   2.48104   2.70422   2.73476
 Alpha virt. eigenvalues --    2.77903   3.15018   3.18065   3.24470   3.31908
 Alpha virt. eigenvalues --    3.48417   3.87603   3.94488   5.01806   5.05694
 Alpha virt. eigenvalues --    5.95500   6.76717   6.82006   6.97410   7.12905
 Alpha virt. eigenvalues --    7.18055  24.04231  49.96796
          Condensed to atoms (all electrons):
               1          2          3          4
     1  C    4.755165   0.383977   0.400851   0.399979
     2  O    0.383977   8.021365  -0.063319  -0.062088
     3  H    0.400851  -0.063319   0.634386  -0.081335
     4  H    0.399979  -0.062088  -0.081335   0.632953
 Mulliken charges:
               1
     1  C    0.060027
     2  O   -0.279935
     3  H    0.109417
     4  H    0.110491
 Sum of Mulliken charges =  -0.00000
 Mulliken charges with hydrogens summed into heavy atoms:
               1
     1  C    0.279935
     2  O   -0.279935
 APT charges:
               1
     1  C   -0.258599
     2  O   -0.366998
     3  H    0.311869
     4  H    0.313728
 Sum of APT charges =  -0.00000
 APT charges with hydrogens summed into heavy atoms:
               1
     1  C    0.366998
     2  O   -0.366998
 Electronic spatial extent (au):  <R**2>=             60.8981
 Charge=             -0.0000 electrons
 Dipole moment (field-independent basis, Debye):
    X=              0.7784    Y=              0.0990    Z=             -2.2274  Tot=              2.3616
 Quadrupole moment (field-independent basis, Debye-Ang):
   XX=            -11.6503   YY=            -11.7453   ZZ=            -11.8769
   XY=              0.0123   XZ=              0.0864   YZ=              0.0110
 Traceless Quadrupole moment (field-independent basis, Debye-Ang):
   XX=              0.1072   YY=              0.0122   ZZ=             -0.1194
   XY=              0.0123   XZ=              0.0864   YZ=              0.0110
 Octapole moment (field-independent basis, Debye-Ang**2):
  XXX=             -0.1059  YYY=             -0.1625  ZZZ=              2.8392  XYY=             -0.4130
  XXY=              0.0965  XXZ=              0.4985  XZZ=             -0.6962  YZZ=             -0.0886
  YYZ=              1.4898  XYZ=             -0.1282
 Hexadecapole moment (field-independent basis, Debye-Ang**3):
 XXXX=            -21.5825 YYYY=            -10.7325 ZZZZ=            -43.6105 XXXY=             -0.5637
 XXXZ=              3.8882 YYYX=             -0.8394 YYYZ=              0.5120 ZZZX=              4.6456
 ZZZY=              0.5911 XXYY=             -5.7174 XXZZ=            -10.6971 YYZZ=             -9.2195
 XXYZ=              0.1532 YYXZ=              1.3398 ZZXY=             -0.1911
 N-N= 3.128843341448D+01 E-N=-3.314933660301D+02  KE= 1.140164440196D+02
  Exact polarizability:       0.000       0.000       0.000       0.000       0.000       0.000
 Approx polarizability:      21.317       0.991      13.654      -3.589      -0.457      30.454

 This type of calculation cannot be archived.


 IT CANNOT BE MY BEAUTY, FOR I HAVE NONE; AND IT CANNOT BE MY WIT,
 FOR HE HAS NOT ENOUGH TO KNOW THAT I HAVE ANY.
 -- CATHARINE SEDLEY, PUZZLED ABOUT WHY SHE WAS MISTRESS TO JAMES II
 Job cpu time:       0 days  0 hours  6 minutes 15.2 seconds.
 Elapsed time:       0 days  0 hours  6 minutes 14.0 seconds.
 File lengths (MBytes):  RWF=     17 Int=      0 D2E=      0 Chk=      3 Scr=      2
 Normal termination of Gaussian 16 at Wed Sep 30 09:29:29 2020.
