 Entering Link 1 = D:\work\G09W-D01\G09W\l1.exe PID=     13484.
  
 Copyright (c) 1988,1990,1992,1993,1995,1998,2003,2009,2013,
            Gaussian, Inc.  All Rights Reserved.
  
 This is part of the Gaussian(R) 09 program.  It is based on
 the Gaussian(R) 03 system (copyright 2003, Gaussian, Inc.),
 the Gaussian(R) 98 system (copyright 1998, Gaussian, Inc.),
 the Gaussian(R) 94 system (copyright 1995, Gaussian, Inc.),
 the Gaussian 92(TM) system (copyright 1992, Gaussian, Inc.),
 the Gaussian 90(TM) system (copyright 1990, Gaussian, Inc.),
 the Gaussian 88(TM) system (copyright 1988, Gaussian, Inc.),
 the Gaussian 86(TM) system (copyright 1986, Carnegie Mellon
 University), and the Gaussian 82(TM) system (copyright 1983,
 Carnegie Mellon University). Gaussian is a federally registered
 trademark of Gaussian, Inc.
  
 This software contains proprietary and confidential information,
 including trade secrets, belonging to Gaussian, Inc.
  
 This software is provided under written license and may be
 used, copied, transmitted, or stored only in accord with that
 written license.
  
 The following legend is applicable only to US Government
 contracts under FAR:
  
                    RESTRICTED RIGHTS LEGEND
  
 Use, reproduction and disclosure by the US Government is
 subject to restrictions as set forth in subparagraphs (a)
 and (c) of the Commercial Computer Software - Restricted
 Rights clause in FAR 52.227-19.
  
 Gaussian, Inc.
 340 Quinnipiac St., Bldg. 40, Wallingford CT 06492
  
  
 ---------------------------------------------------------------
 Warning -- This program may not be used in any manner that
 competes with the business of Gaussian, Inc. or will provide
 assistance to any competitor of Gaussian, Inc.  The licensee
 of this program is prohibited from giving any competitor of
 Gaussian, Inc. access to this program.  By using this program,
 the user acknowledges that Gaussian, Inc. is engaged in the
 business of creating and licensing software in the field of
 computational chemistry and represents and warrants to the
 licensee that it is not a competitor of Gaussian, Inc. and that
 it will not use this program in any manner prohibited above.
 ---------------------------------------------------------------
  

 Cite this work as:
 Gaussian 09, Revision D.01,
 M. J. Frisch, G. W. Trucks, H. B. Schlegel, G. E. Scuseria, 
 M. A. Robb, J. R. Cheeseman, G. Scalmani, V. Barone, B. Mennucci, 
 G. A. Petersson, H. Nakatsuji, M. Caricato, X. Li, H. P. Hratchian, 
 A. F. Izmaylov, J. Bloino, G. Zheng, J. L. Sonnenberg, M. Hada, 
 M. Ehara, K. Toyota, R. Fukuda, J. Hasegawa, M. Ishida, T. Nakajima, 
 Y. Honda, O. Kitao, H. Nakai, T. Vreven, J. A. Montgomery, Jr., 
 J. E. Peralta, F. Ogliaro, M. Bearpark, J. J. Heyd, E. Brothers, 
 K. N. Kudin, V. N. Staroverov, T. Keith, R. Kobayashi, J. Normand, 
 K. Raghavachari, A. Rendell, J. C. Burant, S. S. Iyengar, J. Tomasi, 
 M. Cossi, N. Rega, J. M. Millam, M. Klene, J. E. Knox, J. B. Cross, 
 V. Bakken, C. Adamo, J. Jaramillo, R. Gomperts, R. E. Stratmann, 
 O. Yazyev, A. J. Austin, R. Cammi, C. Pomelli, J. W. Ochterski, 
 R. L. Martin, K. Morokuma, V. G. Zakrzewski, G. A. Voth, 
 P. Salvador, J. J. Dannenberg, S. Dapprich, A. D. Daniels, 
 O. Farkas, J. B. Foresman, J. V. Ortiz, J. Cioslowski, 
 and D. J. Fox, Gaussian, Inc., Wallingford CT, 2013.
 
 ******************************************
 Gaussian 09:  IA32W-G09RevD.01 24-Apr-2013
                26-Jul-2020 
 ******************************************
 %chk=C:\Users\Administrator\Desktop\IRC.chk
 ----------------------------------------------------------------------
 # irc=(CalcFC,Recalc=10,maxpoints=200,stepsize=15, LQA) b3lyp/6-311+g(
 d,p) geom=connectivity
 ----------------------------------------------------------------------
 1/10=4,14=-1,18=10,26=3,38=1,39=15,42=200,44=3,45=2,57=2,71=10/1,23;
 2/12=2,17=6,18=5,29=1,40=1/2;
 3/5=4,6=6,7=111,11=2,16=1,25=1,30=1,71=2,74=-5,140=1/1,2,3;
 4//1;
 5/5=2,38=5/2;
 8/6=4,10=90,11=11/1;
 11/6=1,8=1,9=11,15=111,16=1/1,2,10;
 10/6=1,13=1/2;
 6/7=2,8=2,9=2,10=2,28=1/1;
 7/10=1,18=20,25=1/1,2,3,16;
 1/10=4,14=-1,18=10,26=3,39=15,42=200,44=3,45=2,71=10/23(2);
 2/29=1/2;
 99/5=20/99;
 2/29=1/2;
 3/5=4,6=6,7=111,11=2,16=1,25=1,30=1,71=2,74=-5,140=1/1,2,3;
 4/5=5,16=3,69=1/1;
 5/5=2,38=5/2;
 8/6=4,10=90,11=11/1;
 11/6=1,8=1,9=11,15=111,16=1/1,2,10;
 10/6=1,13=1/2;
 7/10=1,18=20,25=1/1,2,3,16;
 1/14=-1,18=10,26=3,39=15,42=200,44=3,45=2,71=10/23(-8);
 2/29=1/2;
 6/7=2,8=2,9=2,10=2,19=2,28=1/1;
 99/5=20,9=1/99;
 -------------------
 Title Card Required
 -------------------
 Symbolic Z-matrix:
 Charge =  0 Multiplicity = 1
 C                     0.0809    0.61888   0. 
 H                    -1.05164   0.24367   0. 
 N                     0.0809   -0.56527   0. 
 
 IRC-IRC-IRC-IRC-IRC-IRC-IRC-IRC-IRC-IRC-IRC-IRC-IRC-IRC-IRC-IRC-IRC-IRC
 ------------------------------------------------------------------------
 INPUT DATA FOR L123
 ------------------------------------------------------------------------
 GENERAL PARAMETERS:
 Follow reaction path in both directions.
 Maximum points per path      = 200
 Step size                    =   0.150 bohr
 Integration scheme           = LQA                                 
 Initial Hessian              = CalcFC
 Hessian evaluation           = Analytic every  10 predictor steps
                              = Update at all corrector steps
 Hessian updating method      = Bofill                              
 ------------------------------------------------------------------------
 IRC-IRC-IRC-IRC-IRC-IRC-IRC-IRC-IRC-IRC-IRC-IRC-IRC-IRC-IRC-IRC-IRC-IRC
                          Input orientation:                          
 ---------------------------------------------------------------------
 Center     Atomic      Atomic             Coordinates (Angstroms)
 Number     Number       Type             X           Y           Z
 ---------------------------------------------------------------------
      1          6           0        0.080896    0.618875    0.000000
      2          1           0       -1.051645    0.243670    0.000000
      3          7           0        0.080896   -0.565274    0.000000
 ---------------------------------------------------------------------
                    Distance matrix (angstroms):
                    1          2          3
     1  C    0.000000
     2  H    1.193075   0.000000
     3  N    1.184149   1.391776   0.000000
 Symmetry turned off by external request.
 Stoichiometry    CHN
 Framework group  CS[SG(CHN)]
 Deg. of freedom     3
 Full point group                 CS      NOp   2
 Rotational constants (GHZ):    409.5731684     55.3008223     48.7223064
 Standard basis: 6-311+G(d,p) (5D, 7F)
    50 basis functions,    80 primitive gaussians,    52 cartesian basis functions
     7 alpha electrons        7 beta electrons
       nuclear repulsion energy        24.0918917143 Hartrees.
 NAtoms=    3 NActive=    3 NUniq=    3 SFac= 1.00D+00 NAtFMM=   60 NAOKFM=F Big=F
 Integral buffers will be    262144 words long.
 Raffenetti 2 integral format.
 Two-electron integral symmetry is turned off.
 One-electron integrals computed using PRISM.
 NBasis=    50 RedAO= T EigKep=  2.96D-03  NBF=    50
 NBsUse=    50 1.00D-06 EigRej= -1.00D+00 NBFU=    50
 ExpMin= 4.38D-02 ExpMax= 6.29D+03 ExpMxC= 9.49D+02 IAcc=2 IRadAn=         4 AccDes= 0.00D+00
 Harris functional with IExCor=  402 and IRadAn=       4 diagonalized for initial guess.
 HarFok:  IExCor=  402 AccDes= 0.00D+00 IRadAn=         4 IDoV= 1 UseB2=F ITyADJ=14
 ICtDFT=  3500011 ScaDFX=  1.000000  1.000000  1.000000  1.000000
 FoFCou: FMM=F IPFlag=           0 FMFlag=      100000 FMFlg1=           0
         NFxFlg=           0 DoJE=T BraDBF=F KetDBF=T FulRan=T
         wScrn=  0.000000 ICntrl=     500 IOpCl=  0 I1Cent=   200000004 NGrid=           0
         NMat0=    1 NMatS0=      1 NMatT0=    0 NMatD0=    1 NMtDS0=    0 NMtDT0=    0
 Symmetry not used in FoFCou.
 Keep R1 ints in memory in canonical form, NReq=1709481.
 Requested convergence on RMS density matrix=1.00D-08 within 128 cycles.
 Requested convergence on MAX density matrix=1.00D-06.
 Requested convergence on             energy=1.00D-06.
 No special actions if energy rises.
 SCF Done:  E(RB3LYP) =  -93.3780092332     A.U. after   10 cycles
            NFock= 10  Conv=0.15D-08     -V/T= 2.0037
 DoSCS=F DFT=T ScalE2(SS,OS)=  1.000000  1.000000
 Range of M.O.s used for correlation:     1    50
 NBasis=    50 NAE=     7 NBE=     7 NFC=     0 NFV=     0
 NROrb=     50 NOA=     7 NOB=     7 NVA=    43 NVB=    43
 Symmetrizing basis deriv contribution to polar:
 IMax=3 JMax=2 DiffMx= 0.00D+00
 G2DrvN: will do     4 centers at a time, making    1 passes.
 Calling FoFCou, ICntrl=  3107 FMM=F I1Cent=   0 AccDes= 0.00D+00.
 End of G2Drv F.D. properties file   721 does not exist.
 End of G2Drv F.D. properties file   722 does not exist.
 End of G2Drv F.D. properties file   788 does not exist.
          IDoAtm=111
          Differentiating once with respect to nuclear coordinates.
 Keep R1 ints in memory in canonical form, NReq=1681693.
          There are    12 degrees of freedom in the 1st order CPHF.  IDoFFX=6 NUNeed=     0.
      6 vectors produced by pass  0 Test12= 2.51D-15 8.33D-09 XBig12= 1.58D-01 2.44D-01.
 AX will form     6 AO Fock derivatives at one time.
      6 vectors produced by pass  1 Test12= 2.51D-15 8.33D-09 XBig12= 2.90D-02 1.04D-01.
      6 vectors produced by pass  2 Test12= 2.51D-15 8.33D-09 XBig12= 9.70D-04 9.46D-03.
      6 vectors produced by pass  3 Test12= 2.51D-15 8.33D-09 XBig12= 3.20D-05 2.17D-03.
      6 vectors produced by pass  4 Test12= 2.51D-15 8.33D-09 XBig12= 9.60D-08 6.83D-05.
      6 vectors produced by pass  5 Test12= 2.51D-15 8.33D-09 XBig12= 1.22D-10 3.66D-06.
      4 vectors produced by pass  6 Test12= 2.51D-15 8.33D-09 XBig12= 1.89D-13 1.62D-07.
 InvSVY:  IOpt=1 It=  1 EMax= 4.44D-16
 Solved reduced A of dimension    40 with     6 vectors.
 End of Minotr F.D. properties file   721 does not exist.
 End of Minotr F.D. properties file   722 does not exist.
 End of Minotr F.D. properties file   788 does not exist.

 **********************************************************************

            Population analysis using the SCF density.

 **********************************************************************

 Alpha  occ. eigenvalues --  -14.39462 -10.24440  -1.00333  -0.53615  -0.46484
 Alpha  occ. eigenvalues --   -0.39994  -0.35151
 Alpha virt. eigenvalues --   -0.07619  -0.01454   0.00601   0.05187   0.05969
 Alpha virt. eigenvalues --    0.06726   0.08527   0.14088   0.15963   0.16473
 Alpha virt. eigenvalues --    0.22773   0.34903   0.42341   0.52021   0.52497
 Alpha virt. eigenvalues --    0.60586   0.72894   0.78191   0.80229   0.89523
 Alpha virt. eigenvalues --    0.99650   1.11356   1.24195   1.35156   1.45651
 Alpha virt. eigenvalues --    1.56905   1.73084   1.93252   2.00127   2.22096
 Alpha virt. eigenvalues --    2.23548   2.40955   2.46397   2.77224   2.80434
 Alpha virt. eigenvalues --    2.89317   3.01525   3.26517   3.81980   3.88856
 Alpha virt. eigenvalues --    4.43764  23.95328  35.54763
          Condensed to atoms (all electrons):
               1          2          3
     1  C    5.748257   0.256242   0.173613
     2  H    0.256242   0.455710   0.069714
     3  N    0.173613   0.069714   6.796894
 Mulliken charges:
               1
     1  C   -0.178112
     2  H    0.218334
     3  N   -0.040222
 Sum of Mulliken charges =   0.00000
 Mulliken charges with hydrogens summed into heavy atoms:
               1
     1  C    0.040222
     3  N   -0.040222
 APT charges:
               1
     1  C   -0.219613
     2  H    0.288926
     3  N   -0.069313
 Sum of APT charges =   0.00000
 APT charges with hydrogens summed into heavy atoms:
               1
     1  C    0.069313
     3  N   -0.069313
 Electronic spatial extent (au):  <R**2>=             48.0892
 Charge=              0.0000 electrons
 Dipole moment (field-independent basis, Debye):
    X=             -1.3223    Y=              0.1256    Z=              0.0000  Tot=              1.3282
 Quadrupole moment (field-independent basis, Debye-Ang):
   XX=             -9.8281   YY=            -14.6979   ZZ=            -12.3682
   XY=             -0.2846   XZ=              0.0000   YZ=              0.0000
 Traceless Quadrupole moment (field-independent basis, Debye-Ang):
   XX=              2.4700   YY=             -2.3998   ZZ=             -0.0702
   XY=             -0.2846   XZ=              0.0000   YZ=              0.0000
 Octapole moment (field-independent basis, Debye-Ang**2):
  XXX=             -2.6823  YYY=             -3.2115  ZZZ=              0.0000  XYY=             -0.2583
  XXY=             -0.6123  XXZ=              0.0000  XZZ=             -0.3219  YZZ=             -0.6836
  YYZ=              0.0000  XYZ=              0.0000
 Hexadecapole moment (field-independent basis, Debye-Ang**3):
 XXXX=            -13.6699 YYYY=            -45.7641 ZZZZ=            -13.4412 XXXY=             -0.1506
 XXXZ=              0.0000 YYYX=              0.4053 YYYZ=              0.0000 ZZZX=              0.0000
 ZZZY=              0.0000 XXYY=             -9.6833 XXZZ=             -4.9731 YYZZ=             -9.3955
 XXYZ=              0.0000 YYXZ=              0.0000 ZZXY=              0.1304
 N-N= 2.409189171428D+01 E-N=-2.658687015167D+02  KE= 9.303020615807D+01
  Exact polarizability:   0.000   0.000   0.000   0.000   0.000   0.000
 Approx polarizability:  22.159   0.793  37.625   0.000   0.000  16.683
 Calling FoFJK, ICntrl=    100147 FMM=F ISym2X=0 I1Cent= 0 IOpClX= 0 NMat=1 NMatS=1 NMatT=0.
 -------------------------------------------------------------------
 Center     Atomic                   Forces (Hartrees/Bohr)
 Number     Number              X              Y              Z
 -------------------------------------------------------------------
      1        6           0.000027059   -0.000098281    0.000000000
      2        1          -0.000047955   -0.000004019    0.000000000
      3        7           0.000020896    0.000102300    0.000000000
 -------------------------------------------------------------------
 Cartesian Forces:  Max     0.000102300 RMS     0.000051217
 IRC-IRC-IRC-IRC-IRC-IRC-IRC-IRC-IRC-IRC-IRC-IRC-IRC-IRC-IRC-IRC-IRC-IRC
          ******** Start new reaction path calculation ********
 Supplied step size of   0.1500 bohr.
    Integration on MW PES will use step size of   0.1622 sqrt(amu)*bohr.
 Point Number:   0          Path Number:   1
 Calculating another point on the path.
 IRC-IRC-IRC-IRC-IRC-IRC-IRC-IRC-IRC-IRC-IRC-IRC-IRC-IRC-IRC-IRC-IRC-IRC
                          Input orientation:                          
 ---------------------------------------------------------------------
 Center     Atomic      Atomic             Coordinates (Angstroms)
 Number     Number       Type             X           Y           Z
 ---------------------------------------------------------------------
      1          6           0        0.047880    0.632247    0.000000
      2          1           0       -1.079049    0.174655    0.000000
      3          7           0        0.036630   -0.554377    0.000000
 ---------------------------------------------------------------------
                    Distance matrix (angstroms):
                    1          2          3
     1  C    0.000000
     2  H    1.216289   0.000000
     3  N    1.186677   1.332752   0.000000
 Symmetry turned off by external request.
 Stoichiometry    CHN
 Framework group  CS[SG(CHN)]
 Deg. of freedom     3
 Full point group                 CS      NOp   2
 Rotational constants (GHZ):    414.8575642     55.3370197     48.8244271
 Standard basis: 6-311+G(d,p) (5D, 7F)
    50 basis functions,    80 primitive gaussians,    52 cartesian basis functions
     7 alpha electrons        7 beta electrons
       nuclear repulsion energy        24.1189890827 Hartrees.
 NAtoms=    3 NActive=    3 NUniq=    3 SFac= 1.00D+00 NAtFMM=   60 NAOKFM=F Big=F
 Integral buffers will be    262144 words long.
 Raffenetti 2 integral format.
 Two-electron integral symmetry is turned off.
 One-electron integrals computed using PRISM.
 NBasis=    50 RedAO= T EigKep=  2.97D-03  NBF=    50
 NBsUse=    50 1.00D-06 EigRej= -1.00D+00 NBFU=    50
 Initial guess from the checkpoint file:  "C:\Users\Administrator\Desktop\IRC.chk"
 B after Tr=    -0.072263    0.011810    0.000000
         Rot=    0.999994    0.000000    0.000000   -0.003415 Ang=  -0.39 deg.
 ExpMin= 4.38D-02 ExpMax= 6.29D+03 ExpMxC= 9.49D+02 IAcc=2 IRadAn=         4 AccDes= 0.00D+00
 Harris functional with IExCor=  402 and IRadAn=       4 diagonalized for initial guess.
 HarFok:  IExCor=  402 AccDes= 0.00D+00 IRadAn=         4 IDoV= 1 UseB2=F ITyADJ=14
 ICtDFT=  3500011 ScaDFX=  1.000000  1.000000  1.000000  1.000000
 FoFCou: FMM=F IPFlag=           0 FMFlag=      100000 FMFlg1=           0
         NFxFlg=           0 DoJE=T BraDBF=F KetDBF=T FulRan=T
         wScrn=  0.000000 ICntrl=     500 IOpCl=  0 I1Cent=   200000004 NGrid=           0
         NMat0=    1 NMatS0=      1 NMatT0=    0 NMatD0=    1 NMtDS0=    0 NMtDT0=    0
 Symmetry not used in FoFCou.
 Keep R1 ints in memory in canonical form, NReq=1709481.
 Requested convergence on RMS density matrix=1.00D-08 within 128 cycles.
 Requested convergence on MAX density matrix=1.00D-06.
 Requested convergence on             energy=1.00D-06.
 No special actions if energy rises.
 SCF Done:  E(RB3LYP) =  -93.3786201268     A.U. after   10 cycles
            NFock= 10  Conv=0.94D-09     -V/T= 2.0038
 DoSCS=F DFT=T ScalE2(SS,OS)=  1.000000  1.000000
 Range of M.O.s used for correlation:     1    50
 NBasis=    50 NAE=     7 NBE=     7 NFC=     0 NFV=     0
 NROrb=     50 NOA=     7 NOB=     7 NVA=    43 NVB=    43
 Symmetrizing basis deriv contribution to polar:
 IMax=3 JMax=2 DiffMx= 0.00D+00
 Calling FoFJK, ICntrl=      2147 FMM=F ISym2X=0 I1Cent= 0 IOpClX= 0 NMat=1 NMatS=1 NMatT=0.
 -------------------------------------------------------------------
 Center     Atomic                   Forces (Hartrees/Bohr)
 Number     Number              X              Y              Z
 -------------------------------------------------------------------
      1        6           0.005498671    0.004122497    0.000000000
      2        1           0.001385461   -0.006719202    0.000000000
      3        7          -0.006884132    0.002596705    0.000000000
 -------------------------------------------------------------------
 Cartesian Forces:  Max     0.006884132 RMS     0.004061085
 IRC-IRC-IRC-IRC-IRC-IRC-IRC-IRC-IRC-IRC-IRC-IRC-IRC-IRC-IRC-IRC-IRC-IRC
 Pt  1 Step number   1 out of a maximum of  20
 Point Number:   1          Path Number:   1
   CHANGE IN THE REACTION COORDINATE =    0.16216
   NET REACTION COORDINATE UP TO THIS POINT =    0.16216
  # OF POINTS ALONG THE PATH =   1
  # OF STEPS =   1

 Calculating another point on the path.
 IRC-IRC-IRC-IRC-IRC-IRC-IRC-IRC-IRC-IRC-IRC-IRC-IRC-IRC-IRC-IRC-IRC-IRC
                          Input orientation:                          
 ---------------------------------------------------------------------
 Center     Atomic      Atomic             Coordinates (Angstroms)
 Number     Number       Type             X           Y           Z
 ---------------------------------------------------------------------
      1          6           0        0.053409    0.636473    0.000000
      2          1           0       -1.066332    0.096786    0.000000
      3          7           0        0.030977   -0.552395    0.000000
 ---------------------------------------------------------------------
                    Distance matrix (angstroms):
                    1          2          3
     1  C    0.000000
     2  H    1.243013   0.000000
     3  N    1.189080   1.274960   0.000000
 Symmetry turned off by external request.
 Stoichiometry    CHN
 Framework group  CS[SG(CHN)]
 Deg. of freedom     3
 Full point group                 CS      NOp   2
 Rotational constants (GHZ):    423.5819479     55.2686720     48.8895926
 Standard basis: 6-311+G(d,p) (5D, 7F)
    50 basis functions,    80 primitive gaussians,    52 cartesian basis functions
     7 alpha electrons        7 beta electrons
       nuclear repulsion energy        24.1510014085 Hartrees.
 NAtoms=    3 NActive=    3 NUniq=    3 SFac= 1.00D+00 NAtFMM=   60 NAOKFM=F Big=F
 Integral buffers will be    262144 words long.
 Raffenetti 2 integral format.
 Two-electron integral symmetry is turned off.
 One-electron integrals computed using PRISM.
 NBasis=    50 RedAO= T EigKep=  2.95D-03  NBF=    50
 NBsUse=    50 1.00D-06 EigRej= -1.00D+00 NBFU=    50
 Initial guess from the checkpoint file:  "C:\Users\Administrator\Desktop\IRC.chk"
 B after Tr=     0.000932   -0.004720    0.000000
         Rot=    0.999994    0.000000    0.000000   -0.003420 Ang=  -0.39 deg.
 ExpMin= 4.38D-02 ExpMax= 6.29D+03 ExpMxC= 9.49D+02 IAcc=2 IRadAn=         4 AccDes= 0.00D+00
 Harris functional with IExCor=  402 and IRadAn=       4 diagonalized for initial guess.
 HarFok:  IExCor=  402 AccDes= 0.00D+00 IRadAn=         4 IDoV= 1 UseB2=F ITyADJ=14
 ICtDFT=  3500011 ScaDFX=  1.000000  1.000000  1.000000  1.000000
 FoFCou: FMM=F IPFlag=           0 FMFlag=      100000 FMFlg1=           0
         NFxFlg=           0 DoJE=T BraDBF=F KetDBF=T FulRan=T
         wScrn=  0.000000 ICntrl=     500 IOpCl=  0 I1Cent=   200000004 NGrid=           0
         NMat0=    1 NMatS0=      1 NMatT0=    0 NMatD0=    1 NMtDS0=    0 NMtDT0=    0
 Symmetry not used in FoFCou.
 Keep R1 ints in memory in canonical form, NReq=1709481.
 Requested convergence on RMS density matrix=1.00D-08 within 128 cycles.
 Requested convergence on MAX density matrix=1.00D-06.
 Requested convergence on             energy=1.00D-06.
 No special actions if energy rises.
 SCF Done:  E(RB3LYP) =  -93.3803201036     A.U. after   10 cycles
            NFock= 10  Conv=0.95D-09     -V/T= 2.0037
 DoSCS=F DFT=T ScalE2(SS,OS)=  1.000000  1.000000
 Range of M.O.s used for correlation:     1    50
 NBasis=    50 NAE=     7 NBE=     7 NFC=     0 NFV=     0
 NROrb=     50 NOA=     7 NOB=     7 NVA=    43 NVB=    43

 **** Warning!!: The largest alpha MO coefficient is  0.10096670D+02

 Symmetrizing basis deriv contribution to polar:
 IMax=3 JMax=2 DiffMx= 0.00D+00
 Calling FoFJK, ICntrl=      2147 FMM=F ISym2X=0 I1Cent= 0 IOpClX= 0 NMat=1 NMatS=1 NMatT=0.
 -------------------------------------------------------------------
 Center     Atomic                   Forces (Hartrees/Bohr)
 Number     Number              X              Y              Z
 -------------------------------------------------------------------
      1        6           0.010208770    0.007464241    0.000000000
      2        1           0.002078331   -0.012142525    0.000000000
      3        7          -0.012287101    0.004678284    0.000000000
 -------------------------------------------------------------------
 Cartesian Forces:  Max     0.012287101 RMS     0.007337525
 IRC-IRC-IRC-IRC-IRC-IRC-IRC-IRC-IRC-IRC-IRC-IRC-IRC-IRC-IRC-IRC-IRC-IRC
 Pt  2 Step number   1 out of a maximum of  20
 Point Number:   2          Path Number:   1
   CHANGE IN THE REACTION COORDINATE =    0.16209
   NET REACTION COORDINATE UP TO THIS POINT =    0.32426
  # OF POINTS ALONG THE PATH =   2
  # OF STEPS =   1

 Calculating another point on the path.
 IRC-IRC-IRC-IRC-IRC-IRC-IRC-IRC-IRC-IRC-IRC-IRC-IRC-IRC-IRC-IRC-IRC-IRC
                          Input orientation:                          
 ---------------------------------------------------------------------
 Center     Atomic      Atomic             Coordinates (Angstroms)
 Number     Number       Type             X           Y           Z
 ---------------------------------------------------------------------
      1          6           0        0.058944    0.640597    0.000000
      2          1           0       -1.053675    0.018869    0.000000
      3          7           0        0.025323   -0.550321    0.000000
 ---------------------------------------------------------------------
                    Distance matrix (angstroms):
                    1          2          3
     1  C    0.000000
     2  H    1.274545   0.000000
     3  N    1.191392   1.219924   0.000000
 Symmetry turned off by external request.
 Stoichiometry    CHN
 Framework group  CS[SG(CHN)]
 Deg. of freedom     3
 Full point group                 CS      NOp   2
 Rotational constants (GHZ):    434.7282430     55.0961311     48.8988412
 Standard basis: 6-311+G(d,p) (5D, 7F)
    50 basis functions,    80 primitive gaussians,    52 cartesian basis functions
     7 alpha electrons        7 beta electrons
       nuclear repulsion energy        24.1826055602 Hartrees.
 NAtoms=    3 NActive=    3 NUniq=    3 SFac= 1.00D+00 NAtFMM=   60 NAOKFM=F Big=F
 Integral buffers will be    262144 words long.
 Raffenetti 2 integral format.
 Two-electron integral symmetry is turned off.
 One-electron integrals computed using PRISM.
 NBasis=    50 RedAO= T EigKep=  2.93D-03  NBF=    50
 NBsUse=    50 1.00D-06 EigRej= -1.00D+00 NBFU=    50
 Initial guess from the checkpoint file:  "C:\Users\Administrator\Desktop\IRC.chk"
 B after Tr=     0.000892   -0.004727    0.000000
         Rot=    0.999994    0.000000    0.000000   -0.003435 Ang=  -0.39 deg.
 ExpMin= 4.38D-02 ExpMax= 6.29D+03 ExpMxC= 9.49D+02 IAcc=2 IRadAn=         4 AccDes= 0.00D+00
 Harris functional with IExCor=  402 and IRadAn=       4 diagonalized for initial guess.
 HarFok:  IExCor=  402 AccDes= 0.00D+00 IRadAn=         4 IDoV= 1 UseB2=F ITyADJ=14
 ICtDFT=  3500011 ScaDFX=  1.000000  1.000000  1.000000  1.000000
 FoFCou: FMM=F IPFlag=           0 FMFlag=      100000 FMFlg1=           0
         NFxFlg=           0 DoJE=T BraDBF=F KetDBF=T FulRan=T
         wScrn=  0.000000 ICntrl=     500 IOpCl=  0 I1Cent=   200000004 NGrid=           0
         NMat0=    1 NMatS0=      1 NMatT0=    0 NMatD0=    1 NMtDS0=    0 NMtDT0=    0
 Symmetry not used in FoFCou.
 Keep R1 ints in memory in canonical form, NReq=1709481.
 Requested convergence on RMS density matrix=1.00D-08 within 128 cycles.
 Requested convergence on MAX density matrix=1.00D-06.
 Requested convergence on             energy=1.00D-06.
 No special actions if energy rises.
 SCF Done:  E(RB3LYP) =  -93.3828000407     A.U. after    9 cycles
            NFock=  9  Conv=0.81D-08     -V/T= 2.0037
 DoSCS=F DFT=T ScalE2(SS,OS)=  1.000000  1.000000
 Range of M.O.s used for correlation:     1    50
 NBasis=    50 NAE=     7 NBE=     7 NFC=     0 NFV=     0
 NROrb=     50 NOA=     7 NOB=     7 NVA=    43 NVB=    43

 **** Warning!!: The largest alpha MO coefficient is  0.10276631D+02

 Symmetrizing basis deriv contribution to polar:
 IMax=3 JMax=2 DiffMx= 0.00D+00
 Calling FoFJK, ICntrl=      2147 FMM=F ISym2X=0 I1Cent= 0 IOpClX= 0 NMat=1 NMatS=1 NMatT=0.
 -------------------------------------------------------------------
 Center     Atomic                   Forces (Hartrees/Bohr)
 Number     Number              X              Y              Z
 -------------------------------------------------------------------
      1        6           0.013812010    0.009444470    0.000000000
      2        1           0.001312027   -0.015643550    0.000000000
      3        7          -0.015124037    0.006199080    0.000000000
 -------------------------------------------------------------------
 Cartesian Forces:  Max     0.015643550 RMS     0.009390165
 IRC-IRC-IRC-IRC-IRC-IRC-IRC-IRC-IRC-IRC-IRC-IRC-IRC-IRC-IRC-IRC-IRC-IRC
 Pt  3 Step number   1 out of a maximum of  20
 Point Number:   3          Path Number:   1
   CHANGE IN THE REACTION COORDINATE =    0.16212
   NET REACTION COORDINATE UP TO THIS POINT =    0.48637
  # OF POINTS ALONG THE PATH =   3
  # OF STEPS =   1

 Calculating another point on the path.
 IRC-IRC-IRC-IRC-IRC-IRC-IRC-IRC-IRC-IRC-IRC-IRC-IRC-IRC-IRC-IRC-IRC-IRC
                          Input orientation:                          
 ---------------------------------------------------------------------
 Center     Atomic      Atomic             Coordinates (Angstroms)
 Number     Number       Type             X           Y           Z
 ---------------------------------------------------------------------
      1          6           0        0.064667    0.644625    0.000000
      2          1           0       -1.044799   -0.059532    0.000000
      3          7           0        0.019780   -0.548130    0.000000
 ---------------------------------------------------------------------
                    Distance matrix (angstroms):
                    1          2          3
     1  C    0.000000
     2  H    1.314058   0.000000
     3  N    1.193598   1.171348   0.000000
 Symmetry turned off by external request.
 Stoichiometry    CHN
 Framework group  CS[SG(CHN)]
 Deg. of freedom     3
 Full point group                 CS      NOp   2
 Rotational constants (GHZ):    445.3287092     54.8240954     48.8145691
 Standard basis: 6-311+G(d,p) (5D, 7F)
    50 basis functions,    80 primitive gaussians,    52 cartesian basis functions
     7 alpha electrons        7 beta electrons
       nuclear repulsion energy        24.1991370703 Hartrees.
 NAtoms=    3 NActive=    3 NUniq=    3 SFac= 1.00D+00 NAtFMM=   60 NAOKFM=F Big=F
 Integral buffers will be    262144 words long.
 Raffenetti 2 integral format.
 Two-electron integral symmetry is turned off.
 One-electron integrals computed using PRISM.
 NBasis=    50 RedAO= T EigKep=  2.89D-03  NBF=    50
 NBsUse=    50 1.00D-06 EigRej= -1.00D+00 NBFU=    50
 Initial guess from the checkpoint file:  "C:\Users\Administrator\Desktop\IRC.chk"
 B after Tr=     0.000603   -0.004762    0.000000
         Rot=    0.999994    0.000000    0.000000   -0.003463 Ang=  -0.40 deg.
 ExpMin= 4.38D-02 ExpMax= 6.29D+03 ExpMxC= 9.49D+02 IAcc=2 IRadAn=         4 AccDes= 0.00D+00
 Harris functional with IExCor=  402 and IRadAn=       4 diagonalized for initial guess.
 HarFok:  IExCor=  402 AccDes= 0.00D+00 IRadAn=         4 IDoV= 1 UseB2=F ITyADJ=14
 ICtDFT=  3500011 ScaDFX=  1.000000  1.000000  1.000000  1.000000
 FoFCou: FMM=F IPFlag=           0 FMFlag=      100000 FMFlg1=           0
         NFxFlg=           0 DoJE=T BraDBF=F KetDBF=T FulRan=T
         wScrn=  0.000000 ICntrl=     500 IOpCl=  0 I1Cent=   200000004 NGrid=           0
         NMat0=    1 NMatS0=      1 NMatT0=    0 NMatD0=    1 NMtDS0=    0 NMtDT0=    0
 Symmetry not used in FoFCou.
 Keep R1 ints in memory in canonical form, NReq=1709481.
 Requested convergence on RMS density matrix=1.00D-08 within 128 cycles.
 Requested convergence on MAX density matrix=1.00D-06.
 Requested convergence on             energy=1.00D-06.
 No special actions if energy rises.
 SCF Done:  E(RB3LYP) =  -93.3856832484     A.U. after    9 cycles
            NFock=  9  Conv=0.54D-08     -V/T= 2.0036
 DoSCS=F DFT=T ScalE2(SS,OS)=  1.000000  1.000000
 Range of M.O.s used for correlation:     1    50
 NBasis=    50 NAE=     7 NBE=     7 NFC=     0 NFV=     0
 NROrb=     50 NOA=     7 NOB=     7 NVA=    43 NVB=    43

 **** Warning!!: The largest alpha MO coefficient is  0.10455784D+02

 Symmetrizing basis deriv contribution to polar:
 IMax=3 JMax=2 DiffMx= 0.00D+00
 Calling FoFJK, ICntrl=      2147 FMM=F ISym2X=0 I1Cent= 0 IOpClX= 0 NMat=1 NMatS=1 NMatT=0.
 -------------------------------------------------------------------
 Center     Atomic                   Forces (Hartrees/Bohr)
 Number     Number              X              Y              Z
 -------------------------------------------------------------------
      1        6           0.015844494    0.009819241    0.000000000
      2        1          -0.000509440   -0.017106699    0.000000000
      3        7          -0.015335054    0.007287458    0.000000000
 -------------------------------------------------------------------
 Cartesian Forces:  Max     0.017106699 RMS     0.010157838
 IRC-IRC-IRC-IRC-IRC-IRC-IRC-IRC-IRC-IRC-IRC-IRC-IRC-IRC-IRC-IRC-IRC-IRC
 Pt  4 Step number   1 out of a maximum of  20
 Point Number:   4          Path Number:   1
   CHANGE IN THE REACTION COORDINATE =    0.16211
   NET REACTION COORDINATE UP TO THIS POINT =    0.64849
  # OF POINTS ALONG THE PATH =   4
  # OF STEPS =   1

 Calculating another point on the path.
 IRC-IRC-IRC-IRC-IRC-IRC-IRC-IRC-IRC-IRC-IRC-IRC-IRC-IRC-IRC-IRC-IRC-IRC
                          Input orientation:                          
 ---------------------------------------------------------------------
 Center     Atomic      Atomic             Coordinates (Angstroms)
 Number     Number       Type             X           Y           Z
 ---------------------------------------------------------------------
      1          6           0        0.070651    0.648464    0.000000
      2          1           0       -1.042647   -0.138438    0.000000
      3          7           0        0.014496   -0.545741    0.000000
 ---------------------------------------------------------------------
                    Distance matrix (angstroms):
                    1          2          3
     1  C    0.000000
     2  H    1.363323   0.000000
     3  N    1.195524   1.132894   0.000000
 Symmetry turned off by external request.
 Stoichiometry    CHN
 Framework group  CS[SG(CHN)]
 Deg. of freedom     3
 Full point group                 CS      NOp   2
 Rotational constants (GHZ):    452.6902033     54.4704933     48.6202083
 Standard basis: 6-311+G(d,p) (5D, 7F)
    50 basis functions,    80 primitive gaussians,    52 cartesian basis functions
     7 alpha electrons        7 beta electrons
       nuclear repulsion energy        24.1891695003 Hartrees.
 NAtoms=    3 NActive=    3 NUniq=    3 SFac= 1.00D+00 NAtFMM=   60 NAOKFM=F Big=F
 Integral buffers will be    262144 words long.
 Raffenetti 2 integral format.
 Two-electron integral symmetry is turned off.
 One-electron integrals computed using PRISM.
 NBasis=    50 RedAO= T EigKep=  2.84D-03  NBF=    50
 NBsUse=    50 1.00D-06 EigRej= -1.00D+00 NBFU=    50
 Initial guess from the checkpoint file:  "C:\Users\Administrator\Desktop\IRC.chk"
 B after Tr=     0.000117   -0.004800    0.000000
         Rot=    0.999994    0.000000    0.000000   -0.003461 Ang=  -0.40 deg.
 ExpMin= 4.38D-02 ExpMax= 6.29D+03 ExpMxC= 9.49D+02 IAcc=2 IRadAn=         4 AccDes= 0.00D+00
 Harris functional with IExCor=  402 and IRadAn=       4 diagonalized for initial guess.
 HarFok:  IExCor=  402 AccDes= 0.00D+00 IRadAn=         4 IDoV= 1 UseB2=F ITyADJ=14
 ICtDFT=  3500011 ScaDFX=  1.000000  1.000000  1.000000  1.000000
 FoFCou: FMM=F IPFlag=           0 FMFlag=      100000 FMFlg1=           0
         NFxFlg=           0 DoJE=T BraDBF=F KetDBF=T FulRan=T
         wScrn=  0.000000 ICntrl=     500 IOpCl=  0 I1Cent=   200000004 NGrid=           0
         NMat0=    1 NMatS0=      1 NMatT0=    0 NMatD0=    1 NMtDS0=    0 NMtDT0=    0
 Symmetry not used in FoFCou.
 Keep R1 ints in memory in canonical form, NReq=1709481.
 Requested convergence on RMS density matrix=1.00D-08 within 128 cycles.
 Requested convergence on MAX density matrix=1.00D-06.
 Requested convergence on             energy=1.00D-06.
 No special actions if energy rises.
 SCF Done:  E(RB3LYP) =  -93.3886895189     A.U. after    9 cycles
            NFock=  9  Conv=0.74D-08     -V/T= 2.0036
 DoSCS=F DFT=T ScalE2(SS,OS)=  1.000000  1.000000
 Range of M.O.s used for correlation:     1    50
 NBasis=    50 NAE=     7 NBE=     7 NFC=     0 NFV=     0
 NROrb=     50 NOA=     7 NOB=     7 NVA=    43 NVB=    43

 **** Warning!!: The largest alpha MO coefficient is  0.10615693D+02

 Symmetrizing basis deriv contribution to polar:
 IMax=3 JMax=2 DiffMx= 0.00D+00
 Calling FoFJK, ICntrl=      2147 FMM=F ISym2X=0 I1Cent= 0 IOpClX= 0 NMat=1 NMatS=1 NMatT=0.
 -------------------------------------------------------------------
 Center     Atomic                   Forces (Hartrees/Bohr)
 Number     Number              X              Y              Z
 -------------------------------------------------------------------
      1        6           0.016471249    0.008980755    0.000000000
      2        1          -0.002148604   -0.017305326    0.000000000
      3        7          -0.014322645    0.008324572    0.000000000
 -------------------------------------------------------------------
 Cartesian Forces:  Max     0.017305326 RMS     0.010167942
 IRC-IRC-IRC-IRC-IRC-IRC-IRC-IRC-IRC-IRC-IRC-IRC-IRC-IRC-IRC-IRC-IRC-IRC
 Pt  5 Step number   1 out of a maximum of  20
 Point Number:   5          Path Number:   1
   CHANGE IN THE REACTION COORDINATE =    0.16209
   NET REACTION COORDINATE UP TO THIS POINT =    0.81057
  # OF POINTS ALONG THE PATH =   5
  # OF STEPS =   1

 Calculating another point on the path.
 IRC-IRC-IRC-IRC-IRC-IRC-IRC-IRC-IRC-IRC-IRC-IRC-IRC-IRC-IRC-IRC-IRC-IRC
                          Input orientation:                          
 ---------------------------------------------------------------------
 Center     Atomic      Atomic             Coordinates (Angstroms)
 Number     Number       Type             X           Y           Z
 ---------------------------------------------------------------------
      1          6           0        0.076816    0.651948    0.000000
      2          1           0       -1.047201   -0.217422    0.000000
      3          7           0        0.009541   -0.543042    0.000000
 ---------------------------------------------------------------------
                    Distance matrix (angstroms):
                    1          2          3
     1  C    0.000000
     2  H    1.420993   0.000000
     3  N    1.196883   1.105772   0.000000
 Symmetry turned off by external request.
 Stoichiometry    CHN
 Framework group  CS[SG(CHN)]
 Deg. of freedom     3
 Full point group                 CS      NOp   2
 Rotational constants (GHZ):    456.5317533     54.0638866     48.3393884
 Standard basis: 6-311+G(d,p) (5D, 7F)
    50 basis functions,    80 primitive gaussians,    52 cartesian basis functions
     7 alpha electrons        7 beta electrons
       nuclear repulsion energy        24.1537542499 Hartrees.
 NAtoms=    3 NActive=    3 NUniq=    3 SFac= 1.00D+00 NAtFMM=   60 NAOKFM=F Big=F
 Integral buffers will be    262144 words long.
 Raffenetti 2 integral format.
 Two-electron integral symmetry is turned off.
 One-electron integrals computed using PRISM.
 NBasis=    50 RedAO= T EigKep=  2.79D-03  NBF=    50
 NBsUse=    50 1.00D-06 EigRej= -1.00D+00 NBFU=    50
 Initial guess from the checkpoint file:  "C:\Users\Administrator\Desktop\IRC.chk"
 B after Tr=    -0.000368   -0.004814    0.000000
         Rot=    0.999994    0.000000    0.000000   -0.003403 Ang=  -0.39 deg.
 ExpMin= 4.38D-02 ExpMax= 6.29D+03 ExpMxC= 9.49D+02 IAcc=2 IRadAn=         4 AccDes= 0.00D+00
 Harris functional with IExCor=  402 and IRadAn=       4 diagonalized for initial guess.
 HarFok:  IExCor=  402 AccDes= 0.00D+00 IRadAn=         4 IDoV= 1 UseB2=F ITyADJ=14
 ICtDFT=  3500011 ScaDFX=  1.000000  1.000000  1.000000  1.000000
 FoFCou: FMM=F IPFlag=           0 FMFlag=      100000 FMFlg1=           0
         NFxFlg=           0 DoJE=T BraDBF=F KetDBF=T FulRan=T
         wScrn=  0.000000 ICntrl=     500 IOpCl=  0 I1Cent=   200000004 NGrid=           0
         NMat0=    1 NMatS0=      1 NMatT0=    0 NMatD0=    1 NMtDS0=    0 NMtDT0=    0
 Symmetry not used in FoFCou.
 Keep R1 ints in memory in canonical form, NReq=1709481.
 Requested convergence on RMS density matrix=1.00D-08 within 128 cycles.
 Requested convergence on MAX density matrix=1.00D-06.
 Requested convergence on             energy=1.00D-06.
 No special actions if energy rises.
 SCF Done:  E(RB3LYP) =  -93.3917153163     A.U. after    9 cycles
            NFock=  9  Conv=0.48D-08     -V/T= 2.0035
 DoSCS=F DFT=T ScalE2(SS,OS)=  1.000000  1.000000
 Range of M.O.s used for correlation:     1    50
 NBasis=    50 NAE=     7 NBE=     7 NFC=     0 NFV=     0
 NROrb=     50 NOA=     7 NOB=     7 NVA=    43 NVB=    43

 **** Warning!!: The largest alpha MO coefficient is  0.10750109D+02

 Symmetrizing basis deriv contribution to polar:
 IMax=3 JMax=2 DiffMx= 0.00D+00
 Calling FoFJK, ICntrl=      2147 FMM=F ISym2X=0 I1Cent= 0 IOpClX= 0 NMat=1 NMatS=1 NMatT=0.
 -------------------------------------------------------------------
 Center     Atomic                   Forces (Hartrees/Bohr)
 Number     Number              X              Y              Z
 -------------------------------------------------------------------
      1        6           0.016346013    0.007807607    0.000000000
      2        1          -0.002218147   -0.017308314    0.000000000
      3        7          -0.014127867    0.009500707    0.000000000
 -------------------------------------------------------------------
 Cartesian Forces:  Max     0.017308314 RMS     0.010124277
 IRC-IRC-IRC-IRC-IRC-IRC-IRC-IRC-IRC-IRC-IRC-IRC-IRC-IRC-IRC-IRC-IRC-IRC
 Reaction path inflection point has been passed.
   Previous lowest Hessian eigenvalue=   -0.0011478615
   Current lowest Hessian eigenvalue =    0.0000984631
 Pt  6 Step number   1 out of a maximum of  20
 Point Number:   6          Path Number:   1
   CHANGE IN THE REACTION COORDINATE =    0.16208
   NET REACTION COORDINATE UP TO THIS POINT =    0.97265
  # OF POINTS ALONG THE PATH =   6
  # OF STEPS =   1

 Calculating another point on the path.
 IRC-IRC-IRC-IRC-IRC-IRC-IRC-IRC-IRC-IRC-IRC-IRC-IRC-IRC-IRC-IRC-IRC-IRC
                          Input orientation:                          
 ---------------------------------------------------------------------
 Center     Atomic      Atomic             Coordinates (Angstroms)
 Number     Number       Type             X           Y           Z
 ---------------------------------------------------------------------
      1          6           0        0.083009    0.655006    0.000000
      2          1           0       -1.054076   -0.296382    0.000000
      3          7           0        0.004729   -0.539979    0.000000
 ---------------------------------------------------------------------
                    Distance matrix (angstroms):
                    1          2          3
     1  C    0.000000
     2  H    1.482599   0.000000
     3  N    1.197546   1.086466   0.000000
 Symmetry turned off by external request.
 Stoichiometry    CHN
 Framework group  CS[SG(CHN)]
 Deg. of freedom     3
 Full point group                 CS      NOp   2
 Rotational constants (GHZ):    460.5937586     53.6186270     48.0276353
 Standard basis: 6-311+G(d,p) (5D, 7F)
    50 basis functions,    80 primitive gaussians,    52 cartesian basis functions
     7 alpha electrons        7 beta electrons
       nuclear repulsion energy        24.1101458350 Hartrees.
 NAtoms=    3 NActive=    3 NUniq=    3 SFac= 1.00D+00 NAtFMM=   60 NAOKFM=F Big=F
 Integral buffers will be    262144 words long.
 Raffenetti 2 integral format.
 Two-electron integral symmetry is turned off.
 One-electron integrals computed using PRISM.
 NBasis=    50 RedAO= T EigKep=  2.74D-03  NBF=    50
 NBsUse=    50 1.00D-06 EigRej= -1.00D+00 NBFU=    50
 Initial guess from the checkpoint file:  "C:\Users\Administrator\Desktop\IRC.chk"
 B after Tr=    -0.000558   -0.004818    0.000000
         Rot=    0.999994    0.000000    0.000000   -0.003350 Ang=  -0.38 deg.
 ExpMin= 4.38D-02 ExpMax= 6.29D+03 ExpMxC= 9.49D+02 IAcc=2 IRadAn=         4 AccDes= 0.00D+00
 Harris functional with IExCor=  402 and IRadAn=       4 diagonalized for initial guess.
 HarFok:  IExCor=  402 AccDes= 0.00D+00 IRadAn=         4 IDoV= 1 UseB2=F ITyADJ=14
 ICtDFT=  3500011 ScaDFX=  1.000000  1.000000  1.000000  1.000000
 FoFCou: FMM=F IPFlag=           0 FMFlag=      100000 FMFlg1=           0
         NFxFlg=           0 DoJE=T BraDBF=F KetDBF=T FulRan=T
         wScrn=  0.000000 ICntrl=     500 IOpCl=  0 I1Cent=   200000004 NGrid=           0
         NMat0=    1 NMatS0=      1 NMatT0=    0 NMatD0=    1 NMtDS0=    0 NMtDT0=    0
 Symmetry not used in FoFCou.
 Keep R1 ints in memory in canonical form, NReq=1709481.
 Requested convergence on RMS density matrix=1.00D-08 within 128 cycles.
 Requested convergence on MAX density matrix=1.00D-06.
 Requested convergence on             energy=1.00D-06.
 No special actions if energy rises.
 SCF Done:  E(RB3LYP) =  -93.3947548636     A.U. after    9 cycles
            NFock=  9  Conv=0.70D-08     -V/T= 2.0036
 DoSCS=F DFT=T ScalE2(SS,OS)=  1.000000  1.000000
 Range of M.O.s used for correlation:     1    50
 NBasis=    50 NAE=     7 NBE=     7 NFC=     0 NFV=     0
 NROrb=     50 NOA=     7 NOB=     7 NVA=    43 NVB=    43

 **** Warning!!: The largest alpha MO coefficient is  0.10872652D+02

 Symmetrizing basis deriv contribution to polar:
 IMax=3 JMax=2 DiffMx= 0.00D+00
 Calling FoFJK, ICntrl=      2147 FMM=F ISym2X=0 I1Cent= 0 IOpClX= 0 NMat=1 NMatS=1 NMatT=0.
 -------------------------------------------------------------------
 Center     Atomic                   Forces (Hartrees/Bohr)
 Number     Number              X              Y              Z
 -------------------------------------------------------------------
      1        6           0.016179538    0.006869984    0.000000000
      2        1          -0.001168961   -0.017485106    0.000000000
      3        7          -0.015010577    0.010615122    0.000000000
 -------------------------------------------------------------------
 Cartesian Forces:  Max     0.017485106 RMS     0.010295996
 IRC-IRC-IRC-IRC-IRC-IRC-IRC-IRC-IRC-IRC-IRC-IRC-IRC-IRC-IRC-IRC-IRC-IRC
 Pt  7 Step number   1 out of a maximum of  20
 Point Number:   7          Path Number:   1
   CHANGE IN THE REACTION COORDINATE =    0.16211
   NET REACTION COORDINATE UP TO THIS POINT =    1.13476
  # OF POINTS ALONG THE PATH =   7
  # OF STEPS =   1

 Calculating another point on the path.
 IRC-IRC-IRC-IRC-IRC-IRC-IRC-IRC-IRC-IRC-IRC-IRC-IRC-IRC-IRC-IRC-IRC-IRC
                          Input orientation:                          
 ---------------------------------------------------------------------
 Center     Atomic      Atomic             Coordinates (Angstroms)
 Number     Number       Type             X           Y           Z
 ---------------------------------------------------------------------
      1          6           0        0.089153    0.657701    0.000000
      2          1           0       -1.059047   -0.375436    0.000000
      3          7           0       -0.000178   -0.536599    0.000000
 ---------------------------------------------------------------------
                    Distance matrix (angstroms):
                    1          2          3
     1  C    0.000000
     2  H    1.544582   0.000000
     3  N    1.197636   1.071064   0.000000
 Symmetry turned off by external request.
 Stoichiometry    CHN
 Framework group  CS[SG(CHN)]
 Deg. of freedom     3
 Full point group                 CS      NOp   2
 Rotational constants (GHZ):    468.7219185     53.1281154     47.7192882
 Standard basis: 6-311+G(d,p) (5D, 7F)
    50 basis functions,    80 primitive gaussians,    52 cartesian basis functions
     7 alpha electrons        7 beta electrons
       nuclear repulsion energy        24.0718371143 Hartrees.
 NAtoms=    3 NActive=    3 NUniq=    3 SFac= 1.00D+00 NAtFMM=   60 NAOKFM=F Big=F
 Integral buffers will be    262144 words long.
 Raffenetti 2 integral format.
 Two-electron integral symmetry is turned off.
 One-electron integrals computed using PRISM.
 NBasis=    50 RedAO= T EigKep=  2.68D-03  NBF=    50
 NBsUse=    50 1.00D-06 EigRej= -1.00D+00 NBFU=    50
 Initial guess from the checkpoint file:  "C:\Users\Administrator\Desktop\IRC.chk"
 B after Tr=    -0.000465   -0.004823    0.000000
         Rot=    0.999994    0.000000    0.000000   -0.003341 Ang=  -0.38 deg.
 ExpMin= 4.38D-02 ExpMax= 6.29D+03 ExpMxC= 9.49D+02 IAcc=2 IRadAn=         4 AccDes= 0.00D+00
 Harris functional with IExCor=  402 and IRadAn=       4 diagonalized for initial guess.
 HarFok:  IExCor=  402 AccDes= 0.00D+00 IRadAn=         4 IDoV= 1 UseB2=F ITyADJ=14
 ICtDFT=  3500011 ScaDFX=  1.000000  1.000000  1.000000  1.000000
 FoFCou: FMM=F IPFlag=           0 FMFlag=      100000 FMFlg1=           0
         NFxFlg=           0 DoJE=T BraDBF=F KetDBF=T FulRan=T
         wScrn=  0.000000 ICntrl=     500 IOpCl=  0 I1Cent=   200000004 NGrid=           0
         NMat0=    1 NMatS0=      1 NMatT0=    0 NMatD0=    1 NMtDS0=    0 NMtDT0=    0
 Symmetry not used in FoFCou.
 Keep R1 ints in memory in canonical form, NReq=1709481.
 Requested convergence on RMS density matrix=1.00D-08 within 128 cycles.
 Requested convergence on MAX density matrix=1.00D-06.
 Requested convergence on             energy=1.00D-06.
 No special actions if energy rises.
 SCF Done:  E(RB3LYP) =  -93.3978251798     A.U. after    9 cycles
            NFock=  9  Conv=0.94D-08     -V/T= 2.0036
 DoSCS=F DFT=T ScalE2(SS,OS)=  1.000000  1.000000
 Range of M.O.s used for correlation:     1    50
 NBasis=    50 NAE=     7 NBE=     7 NFC=     0 NFV=     0
 NROrb=     50 NOA=     7 NOB=     7 NVA=    43 NVB=    43

 **** Warning!!: The largest alpha MO coefficient is  0.10998022D+02

 Symmetrizing basis deriv contribution to polar:
 IMax=3 JMax=2 DiffMx= 0.00D+00
 Calling FoFJK, ICntrl=      2147 FMM=F ISym2X=0 I1Cent= 0 IOpClX= 0 NMat=1 NMatS=1 NMatT=0.
 -------------------------------------------------------------------
 Center     Atomic                   Forces (Hartrees/Bohr)
 Number     Number              X              Y              Z
 -------------------------------------------------------------------
      1        6           0.016151116    0.006037358    0.000000000
      2        1          -0.000121425   -0.017686866    0.000000000
      3        7          -0.016029691    0.011649508    0.000000000
 -------------------------------------------------------------------
 Cartesian Forces:  Max     0.017686866 RMS     0.010555727
 IRC-IRC-IRC-IRC-IRC-IRC-IRC-IRC-IRC-IRC-IRC-IRC-IRC-IRC-IRC-IRC-IRC-IRC
 Pt  8 Step number   1 out of a maximum of  20
 Point Number:   8          Path Number:   1
   CHANGE IN THE REACTION COORDINATE =    0.16213
   NET REACTION COORDINATE UP TO THIS POINT =    1.29689
  # OF POINTS ALONG THE PATH =   8
  # OF STEPS =   1

 Calculating another point on the path.
 IRC-IRC-IRC-IRC-IRC-IRC-IRC-IRC-IRC-IRC-IRC-IRC-IRC-IRC-IRC-IRC-IRC-IRC
                          Input orientation:                          
 ---------------------------------------------------------------------
 Center     Atomic      Atomic             Coordinates (Angstroms)
 Number     Number       Type             X           Y           Z
 ---------------------------------------------------------------------
      1          6           0        0.095237    0.660064    0.000000
      2          1           0       -1.060949   -0.454478    0.000000
      3          7           0       -0.005256   -0.532936    0.000000
 ---------------------------------------------------------------------
                    Distance matrix (angstroms):
                    1          2          3
     1  C    0.000000
     2  H    1.605918   0.000000
     3  N    1.197225   1.058605   0.000000
 Symmetry turned off by external request.
 Stoichiometry    CHN
 Framework group  CS[SG(CHN)]
 Deg. of freedom     3
 Full point group                 CS      NOp   2
 Rotational constants (GHZ):    482.2569597     52.5929815     47.4213969
 Standard basis: 6-311+G(d,p) (5D, 7F)
    50 basis functions,    80 primitive gaussians,    52 cartesian basis functions
     7 alpha electrons        7 beta electrons
       nuclear repulsion energy        24.0404050855 Hartrees.
 NAtoms=    3 NActive=    3 NUniq=    3 SFac= 1.00D+00 NAtFMM=   60 NAOKFM=F Big=F
 Integral buffers will be    262144 words long.
 Raffenetti 2 integral format.
 Two-electron integral symmetry is turned off.
 One-electron integrals computed using PRISM.
 NBasis=    50 RedAO= T EigKep=  2.62D-03  NBF=    50
 NBsUse=    50 1.00D-06 EigRej= -1.00D+00 NBFU=    50
 Initial guess from the checkpoint file:  "C:\Users\Administrator\Desktop\IRC.chk"
 B after Tr=    -0.000296   -0.004819    0.000000
         Rot=    0.999994    0.000000    0.000000   -0.003349 Ang=  -0.38 deg.
 ExpMin= 4.38D-02 ExpMax= 6.29D+03 ExpMxC= 9.49D+02 IAcc=2 IRadAn=         4 AccDes= 0.00D+00
 Harris functional with IExCor=  402 and IRadAn=       4 diagonalized for initial guess.
 HarFok:  IExCor=  402 AccDes= 0.00D+00 IRadAn=         4 IDoV= 1 UseB2=F ITyADJ=14
 ICtDFT=  3500011 ScaDFX=  1.000000  1.000000  1.000000  1.000000
 FoFCou: FMM=F IPFlag=           0 FMFlag=      100000 FMFlg1=           0
         NFxFlg=           0 DoJE=T BraDBF=F KetDBF=T FulRan=T
         wScrn=  0.000000 ICntrl=     500 IOpCl=  0 I1Cent=   200000004 NGrid=           0
         NMat0=    1 NMatS0=      1 NMatT0=    0 NMatD0=    1 NMtDS0=    0 NMtDT0=    0
 Symmetry not used in FoFCou.
 Keep R1 ints in memory in canonical form, NReq=1709481.
 Requested convergence on RMS density matrix=1.00D-08 within 128 cycles.
 Requested convergence on MAX density matrix=1.00D-06.
 Requested convergence on             energy=1.00D-06.
 No special actions if energy rises.
 SCF Done:  E(RB3LYP) =  -93.4009255274     A.U. after   10 cycles
            NFock= 10  Conv=0.59D-09     -V/T= 2.0036
 DoSCS=F DFT=T ScalE2(SS,OS)=  1.000000  1.000000
 Range of M.O.s used for correlation:     1    50
 NBasis=    50 NAE=     7 NBE=     7 NFC=     0 NFV=     0
 NROrb=     50 NOA=     7 NOB=     7 NVA=    43 NVB=    43

 **** Warning!!: The largest alpha MO coefficient is  0.11129061D+02

 Symmetrizing basis deriv contribution to polar:
 IMax=3 JMax=2 DiffMx= 0.00D+00
 Calling FoFJK, ICntrl=      2147 FMM=F ISym2X=0 I1Cent= 0 IOpClX= 0 NMat=1 NMatS=1 NMatT=0.
 -------------------------------------------------------------------
 Center     Atomic                   Forces (Hartrees/Bohr)
 Number     Number              X              Y              Z
 -------------------------------------------------------------------
      1        6           0.016063017    0.005157169    0.000000000
      2        1           0.001019558   -0.017731411    0.000000000
      3        7          -0.017082575    0.012574241    0.000000000
 -------------------------------------------------------------------
 Cartesian Forces:  Max     0.017731411 RMS     0.010801158
 IRC-IRC-IRC-IRC-IRC-IRC-IRC-IRC-IRC-IRC-IRC-IRC-IRC-IRC-IRC-IRC-IRC-IRC
 Pt  9 Step number   1 out of a maximum of  20
 Point Number:   9          Path Number:   1
   CHANGE IN THE REACTION COORDINATE =    0.16212
   NET REACTION COORDINATE UP TO THIS POINT =    1.45901
  # OF POINTS ALONG THE PATH =   9
  # OF STEPS =   1

 Calculating another point on the path.
 IRC-IRC-IRC-IRC-IRC-IRC-IRC-IRC-IRC-IRC-IRC-IRC-IRC-IRC-IRC-IRC-IRC-IRC
                          Input orientation:                          
 ---------------------------------------------------------------------
 Center     Atomic      Atomic             Coordinates (Angstroms)
 Number     Number       Type             X           Y           Z
 ---------------------------------------------------------------------
      1          6           0        0.101256    0.662100    0.000000
      2          1           0       -1.058838   -0.533289    0.000000
      3          7           0       -0.010565   -0.529008    0.000000
 ---------------------------------------------------------------------
                    Distance matrix (angstroms):
                    1          2          3
     1  C    0.000000
     2  H    1.665765   0.000000
     3  N    1.196345   1.048282   0.000000
 Symmetry turned off by external request.
 Stoichiometry    CHN
 Framework group  CS[SG(CHN)]
 Deg. of freedom     3
 Full point group                 CS      NOp   2
 Rotational constants (GHZ):    502.6816616     52.0203458     47.1418411
 Standard basis: 6-311+G(d,p) (5D, 7F)
    50 basis functions,    80 primitive gaussians,    52 cartesian basis functions
     7 alpha electrons        7 beta electrons
       nuclear repulsion energy        24.0174899751 Hartrees.
 NAtoms=    3 NActive=    3 NUniq=    3 SFac= 1.00D+00 NAtFMM=   60 NAOKFM=F Big=F
 Integral buffers will be    262144 words long.
 Raffenetti 2 integral format.
 Two-electron integral symmetry is turned off.
 One-electron integrals computed using PRISM.
 NBasis=    50 RedAO= T EigKep=  2.55D-03  NBF=    50
 NBsUse=    50 1.00D-06 EigRej= -1.00D+00 NBFU=    50
 Initial guess from the checkpoint file:  "C:\Users\Administrator\Desktop\IRC.chk"
 B after Tr=    -0.000064   -0.004799    0.000000
         Rot=    0.999994    0.000000    0.000000   -0.003374 Ang=  -0.39 deg.
 ExpMin= 4.38D-02 ExpMax= 6.29D+03 ExpMxC= 9.49D+02 IAcc=2 IRadAn=         4 AccDes= 0.00D+00
 Harris functional with IExCor=  402 and IRadAn=       4 diagonalized for initial guess.
 HarFok:  IExCor=  402 AccDes= 0.00D+00 IRadAn=         4 IDoV= 1 UseB2=F ITyADJ=14
 ICtDFT=  3500011 ScaDFX=  1.000000  1.000000  1.000000  1.000000
 FoFCou: FMM=F IPFlag=           0 FMFlag=      100000 FMFlg1=           0
         NFxFlg=           0 DoJE=T BraDBF=F KetDBF=T FulRan=T
         wScrn=  0.000000 ICntrl=     500 IOpCl=  0 I1Cent=   200000004 NGrid=           0
         NMat0=    1 NMatS0=      1 NMatT0=    0 NMatD0=    1 NMtDS0=    0 NMtDT0=    0
 Symmetry not used in FoFCou.
 Keep R1 ints in memory in canonical form, NReq=1709481.
 Requested convergence on RMS density matrix=1.00D-08 within 128 cycles.
 Requested convergence on MAX density matrix=1.00D-06.
 Requested convergence on             energy=1.00D-06.
 No special actions if energy rises.
 SCF Done:  E(RB3LYP) =  -93.4040322921     A.U. after   10 cycles
            NFock= 10  Conv=0.56D-09     -V/T= 2.0036
 DoSCS=F DFT=T ScalE2(SS,OS)=  1.000000  1.000000
 Range of M.O.s used for correlation:     1    50
 NBasis=    50 NAE=     7 NBE=     7 NFC=     0 NFV=     0
 NROrb=     50 NOA=     7 NOB=     7 NVA=    43 NVB=    43

 **** Warning!!: The largest alpha MO coefficient is  0.11268266D+02

 Symmetrizing basis deriv contribution to polar:
 IMax=3 JMax=2 DiffMx= 0.00D+00
 G2DrvN: will do     4 centers at a time, making    1 passes.
 Calling FoFCou, ICntrl=  3107 FMM=F I1Cent=   0 AccDes= 0.00D+00.
 End of G2Drv F.D. properties file   721 does not exist.
 End of G2Drv F.D. properties file   722 does not exist.
 End of G2Drv F.D. properties file   788 does not exist.
          IDoAtm=111
          Differentiating once with respect to nuclear coordinates.
 Keep R1 ints in memory in canonical form, NReq=1681693.
          There are    12 degrees of freedom in the 1st order CPHF.  IDoFFX=6 NUNeed=     0.
      6 vectors produced by pass  0 Test12= 2.51D-15 8.33D-09 XBig12= 1.05D-01 2.37D-01.
 AX will form     6 AO Fock derivatives at one time.
      6 vectors produced by pass  1 Test12= 2.51D-15 8.33D-09 XBig12= 2.59D-02 8.89D-02.
      6 vectors produced by pass  2 Test12= 2.51D-15 8.33D-09 XBig12= 8.99D-04 9.92D-03.
      6 vectors produced by pass  3 Test12= 2.51D-15 8.33D-09 XBig12= 6.25D-06 8.53D-04.
      6 vectors produced by pass  4 Test12= 2.51D-15 8.33D-09 XBig12= 3.19D-08 5.56D-05.
      6 vectors produced by pass  5 Test12= 2.51D-15 8.33D-09 XBig12= 1.06D-10 3.33D-06.
      4 vectors produced by pass  6 Test12= 2.51D-15 8.33D-09 XBig12= 1.89D-13 9.40D-08.
 InvSVY:  IOpt=1 It=  1 EMax= 4.44D-16
 Solved reduced A of dimension    40 with     6 vectors.
 End of Minotr F.D. properties file   721 does not exist.
 End of Minotr F.D. properties file   722 does not exist.
 End of Minotr F.D. properties file   788 does not exist.
 Calling FoFJK, ICntrl=    100147 FMM=F ISym2X=0 I1Cent= 0 IOpClX= 0 NMat=1 NMatS=1 NMatT=0.
 -------------------------------------------------------------------
 Center     Atomic                   Forces (Hartrees/Bohr)
 Number     Number              X              Y              Z
 -------------------------------------------------------------------
      1        6           0.015810680    0.004208909    0.000000000
      2        1           0.002164841   -0.017505731    0.000000000
      3        7          -0.017975521    0.013296821    0.000000000
 -------------------------------------------------------------------
 Cartesian Forces:  Max     0.017975521 RMS     0.010948133
 IRC-IRC-IRC-IRC-IRC-IRC-IRC-IRC-IRC-IRC-IRC-IRC-IRC-IRC-IRC-IRC-IRC-IRC
 Reaction path inflection point has been passed.
   Previous lowest Hessian eigenvalue=   -0.0007649057
   Current lowest Hessian eigenvalue =    0.0014395118
 Pt 10 Step number   1 out of a maximum of  20
 Point Number:  10          Path Number:   1
   CHANGE IN THE REACTION COORDINATE =    0.16212
   NET REACTION COORDINATE UP TO THIS POINT =    1.62113
  # OF POINTS ALONG THE PATH =  10
  # OF STEPS =   1

 Calculating another point on the path.
 IRC-IRC-IRC-IRC-IRC-IRC-IRC-IRC-IRC-IRC-IRC-IRC-IRC-IRC-IRC-IRC-IRC-IRC
                          Input orientation:                          
 ---------------------------------------------------------------------
 Center     Atomic      Atomic             Coordinates (Angstroms)
 Number     Number       Type             X           Y           Z
 ---------------------------------------------------------------------
      1          6           0        0.107189    0.663677    0.000000
      2          1           0       -1.051927   -0.611514    0.000000
      3          7           0       -0.016147   -0.524730    0.000000
 ---------------------------------------------------------------------
                    Distance matrix (angstroms):
                    1          2          3
     1  C    0.000000
     2  H    1.723271   0.000000
     3  N    1.194789   1.039410   0.000000
 Symmetry turned off by external request.
 Stoichiometry    CHN
 Framework group  CS[SG(CHN)]
 Deg. of freedom     3
 Full point group                 CS      NOp   2
 Rotational constants (GHZ):    531.8676753     51.4399505     46.9036332
 Standard basis: 6-311+G(d,p) (5D, 7F)
    50 basis functions,    80 primitive gaussians,    52 cartesian basis functions
     7 alpha electrons        7 beta electrons
       nuclear repulsion energy        24.0082305019 Hartrees.
 NAtoms=    3 NActive=    3 NUniq=    3 SFac= 1.00D+00 NAtFMM=   60 NAOKFM=F Big=F
 Integral buffers will be    262144 words long.
 Raffenetti 2 integral format.
 Two-electron integral symmetry is turned off.
 One-electron integrals computed using PRISM.
 NBasis=    50 RedAO= T EigKep=  2.49D-03  NBF=    50
 NBsUse=    50 1.00D-06 EigRej= -1.00D+00 NBFU=    50
 Initial guess from the checkpoint file:  "C:\Users\Administrator\Desktop\IRC.chk"
 B after Tr=     0.000219   -0.004756    0.000000
         Rot=    0.999994    0.000000    0.000000   -0.003415 Ang=  -0.39 deg.
 ExpMin= 4.38D-02 ExpMax= 6.29D+03 ExpMxC= 9.49D+02 IAcc=2 IRadAn=         4 AccDes= 0.00D+00
 Harris functional with IExCor=  402 and IRadAn=       4 diagonalized for initial guess.
 HarFok:  IExCor=  402 AccDes= 0.00D+00 IRadAn=         4 IDoV= 1 UseB2=F ITyADJ=14
 ICtDFT=  3500011 ScaDFX=  1.000000  1.000000  1.000000  1.000000
 FoFCou: FMM=F IPFlag=           0 FMFlag=      100000 FMFlg1=           0
         NFxFlg=           0 DoJE=T BraDBF=F KetDBF=T FulRan=T
         wScrn=  0.000000 ICntrl=     500 IOpCl=  0 I1Cent=   200000004 NGrid=           0
         NMat0=    1 NMatS0=      1 NMatT0=    0 NMatD0=    1 NMtDS0=    0 NMtDT0=    0
 Symmetry not used in FoFCou.
 Keep R1 ints in memory in canonical form, NReq=1709481.
 Requested convergence on RMS density matrix=1.00D-08 within 128 cycles.
 Requested convergence on MAX density matrix=1.00D-06.
 Requested convergence on             energy=1.00D-06.
 No special actions if energy rises.
 SCF Done:  E(RB3LYP) =  -93.4071099110     A.U. after    9 cycles
            NFock=  9  Conv=0.81D-08     -V/T= 2.0036
 DoSCS=F DFT=T ScalE2(SS,OS)=  1.000000  1.000000
 Range of M.O.s used for correlation:     1    50
 NBasis=    50 NAE=     7 NBE=     7 NFC=     0 NFV=     0
 NROrb=     50 NOA=     7 NOB=     7 NVA=    43 NVB=    43

 **** Warning!!: The largest alpha MO coefficient is  0.11418381D+02

 Symmetrizing basis deriv contribution to polar:
 IMax=3 JMax=2 DiffMx= 0.00D+00
 Calling FoFJK, ICntrl=      2147 FMM=F ISym2X=0 I1Cent= 0 IOpClX= 0 NMat=1 NMatS=1 NMatT=0.
 -------------------------------------------------------------------
 Center     Atomic                   Forces (Hartrees/Bohr)
 Number     Number              X              Y              Z
 -------------------------------------------------------------------
      1        6           0.015432273    0.003684660    0.000000000
      2        1           0.003091562   -0.017013841    0.000000000
      3        7          -0.018523835    0.013329182    0.000000000
 -------------------------------------------------------------------
 Cartesian Forces:  Max     0.018523835 RMS     0.010911563
 IRC-IRC-IRC-IRC-IRC-IRC-IRC-IRC-IRC-IRC-IRC-IRC-IRC-IRC-IRC-IRC-IRC-IRC
 Pt 11 Step number   1 out of a maximum of  20
 Point Number:  11          Path Number:   1
   CHANGE IN THE REACTION COORDINATE =    0.16212
   NET REACTION COORDINATE UP TO THIS POINT =    1.78325
  # OF POINTS ALONG THE PATH =  11
  # OF STEPS =   1

 Calculating another point on the path.
 IRC-IRC-IRC-IRC-IRC-IRC-IRC-IRC-IRC-IRC-IRC-IRC-IRC-IRC-IRC-IRC-IRC-IRC
                          Input orientation:                          
 ---------------------------------------------------------------------
 Center     Atomic      Atomic             Coordinates (Angstroms)
 Number     Number       Type             X           Y           Z
 ---------------------------------------------------------------------
      1          6           0        0.113083    0.665092    0.000000
      2          1           0       -1.042142   -0.689238    0.000000
      3          7           0       -0.021902   -0.520348    0.000000
 ---------------------------------------------------------------------
                    Distance matrix (angstroms):
                    1          2          3
     1  C    0.000000
     2  H    1.780100   0.000000
     3  N    1.193101   1.034124   0.000000
 Symmetry turned off by external request.
 Stoichiometry    CHN
 Framework group  CS[SG(CHN)]
 Deg. of freedom     3
 Full point group                 CS      NOp   2
 Rotational constants (GHZ):    569.3214084     50.8148888     46.6510414
 Standard basis: 6-311+G(d,p) (5D, 7F)
    50 basis functions,    80 primitive gaussians,    52 cartesian basis functions
     7 alpha electrons        7 beta electrons
       nuclear repulsion energy        23.9939437327 Hartrees.
 NAtoms=    3 NActive=    3 NUniq=    3 SFac= 1.00D+00 NAtFMM=   60 NAOKFM=F Big=F
 Integral buffers will be    262144 words long.
 Raffenetti 2 integral format.
 Two-electron integral symmetry is turned off.
 One-electron integrals computed using PRISM.
 NBasis=    50 RedAO= T EigKep=  2.43D-03  NBF=    50
 NBsUse=    50 1.00D-06 EigRej= -1.00D+00 NBFU=    50
 Initial guess from the checkpoint file:  "C:\Users\Administrator\Desktop\IRC.chk"
 B after Tr=     0.000375   -0.004724    0.000000
         Rot=    0.999994    0.000000    0.000000   -0.003428 Ang=  -0.39 deg.
 ExpMin= 4.38D-02 ExpMax= 6.29D+03 ExpMxC= 9.49D+02 IAcc=2 IRadAn=         4 AccDes= 0.00D+00
 Harris functional with IExCor=  402 and IRadAn=       4 diagonalized for initial guess.
 HarFok:  IExCor=  402 AccDes= 0.00D+00 IRadAn=         4 IDoV= 1 UseB2=F ITyADJ=14
 ICtDFT=  3500011 ScaDFX=  1.000000  1.000000  1.000000  1.000000
 FoFCou: FMM=F IPFlag=           0 FMFlag=      100000 FMFlg1=           0
         NFxFlg=           0 DoJE=T BraDBF=F KetDBF=T FulRan=T
         wScrn=  0.000000 ICntrl=     500 IOpCl=  0 I1Cent=   200000004 NGrid=           0
         NMat0=    1 NMatS0=      1 NMatT0=    0 NMatD0=    1 NMtDS0=    0 NMtDT0=    0
 Symmetry not used in FoFCou.
 Keep R1 ints in memory in canonical form, NReq=1709481.
 Requested convergence on RMS density matrix=1.00D-08 within 128 cycles.
 Requested convergence on MAX density matrix=1.00D-06.
 Requested convergence on             energy=1.00D-06.
 No special actions if energy rises.
 SCF Done:  E(RB3LYP) =  -93.4101072442     A.U. after    9 cycles
            NFock=  9  Conv=0.74D-08     -V/T= 2.0037
 DoSCS=F DFT=T ScalE2(SS,OS)=  1.000000  1.000000
 Range of M.O.s used for correlation:     1    50
 NBasis=    50 NAE=     7 NBE=     7 NFC=     0 NFV=     0
 NROrb=     50 NOA=     7 NOB=     7 NVA=    43 NVB=    43

 **** Warning!!: The largest alpha MO coefficient is  0.11566704D+02

 Symmetrizing basis deriv contribution to polar:
 IMax=3 JMax=2 DiffMx= 0.00D+00
 Calling FoFJK, ICntrl=      2147 FMM=F ISym2X=0 I1Cent= 0 IOpClX= 0 NMat=1 NMatS=1 NMatT=0.
 -------------------------------------------------------------------
 Center     Atomic                   Forces (Hartrees/Bohr)
 Number     Number              X              Y              Z
 -------------------------------------------------------------------
      1        6           0.014715834    0.002769367    0.000000000
      2        1           0.005583004   -0.015816963    0.000000000
      3        7          -0.020298838    0.013047596    0.000000000
 -------------------------------------------------------------------
 Cartesian Forces:  Max     0.020298838 RMS     0.010994211
 IRC-IRC-IRC-IRC-IRC-IRC-IRC-IRC-IRC-IRC-IRC-IRC-IRC-IRC-IRC-IRC-IRC-IRC
 Pt 12 Step number   1 out of a maximum of  20
 Point Number:  12          Path Number:   1
   CHANGE IN THE REACTION COORDINATE =    0.16210
   NET REACTION COORDINATE UP TO THIS POINT =    1.94535
  # OF POINTS ALONG THE PATH =  12
  # OF STEPS =   1

 Calculating another point on the path.
 IRC-IRC-IRC-IRC-IRC-IRC-IRC-IRC-IRC-IRC-IRC-IRC-IRC-IRC-IRC-IRC-IRC-IRC
                          Input orientation:                          
 ---------------------------------------------------------------------
 Center     Atomic      Atomic             Coordinates (Angstroms)
 Number     Number       Type             X           Y           Z
 ---------------------------------------------------------------------
      1          6           0        0.118905    0.666228    0.000000
      2          1           0       -1.025574   -0.765300    0.000000
      3          7           0       -0.028084   -0.515847    0.000000
 ---------------------------------------------------------------------
                    Distance matrix (angstroms):
                    1          2          3
     1  C    0.000000
     2  H    1.832787   0.000000
     3  N    1.191179   1.028209   0.000000
 Symmetry turned off by external request.
 Stoichiometry    CHN
 Framework group  CS[SG(CHN)]
 Deg. of freedom     3
 Full point group                 CS      NOp   2
 Rotational constants (GHZ):    621.9712349     50.1817561     46.4352748
 Standard basis: 6-311+G(d,p) (5D, 7F)
    50 basis functions,    80 primitive gaussians,    52 cartesian basis functions
     7 alpha electrons        7 beta electrons
       nuclear repulsion energy        23.9933428978 Hartrees.
 NAtoms=    3 NActive=    3 NUniq=    3 SFac= 1.00D+00 NAtFMM=   60 NAOKFM=F Big=F
 Integral buffers will be    262144 words long.
 Raffenetti 2 integral format.
 Two-electron integral symmetry is turned off.
 One-electron integrals computed using PRISM.
 NBasis=    50 RedAO= T EigKep=  2.36D-03  NBF=    50
 NBsUse=    50 1.00D-06 EigRej= -1.00D+00 NBFU=    50
 Initial guess from the checkpoint file:  "C:\Users\Administrator\Desktop\IRC.chk"
 B after Tr=     0.000786   -0.004606    0.000000
         Rot=    0.999994    0.000000    0.000000   -0.003507 Ang=  -0.40 deg.
 ExpMin= 4.38D-02 ExpMax= 6.29D+03 ExpMxC= 9.49D+02 IAcc=2 IRadAn=         4 AccDes= 0.00D+00
 Harris functional with IExCor=  402 and IRadAn=       4 diagonalized for initial guess.
 HarFok:  IExCor=  402 AccDes= 0.00D+00 IRadAn=         4 IDoV= 1 UseB2=F ITyADJ=14
 ICtDFT=  3500011 ScaDFX=  1.000000  1.000000  1.000000  1.000000
 FoFCou: FMM=F IPFlag=           0 FMFlag=      100000 FMFlg1=           0
         NFxFlg=           0 DoJE=T BraDBF=F KetDBF=T FulRan=T
         wScrn=  0.000000 ICntrl=     500 IOpCl=  0 I1Cent=   200000004 NGrid=           0
         NMat0=    1 NMatS0=      1 NMatT0=    0 NMatD0=    1 NMtDS0=    0 NMtDT0=    0
 Symmetry not used in FoFCou.
 Keep R1 ints in memory in canonical form, NReq=1709481.
 Requested convergence on RMS density matrix=1.00D-08 within 128 cycles.
 Requested convergence on MAX density matrix=1.00D-06.
 Requested convergence on             energy=1.00D-06.
 No special actions if energy rises.
 SCF Done:  E(RB3LYP) =  -93.4129987594     A.U. after    9 cycles
            NFock=  9  Conv=0.82D-08     -V/T= 2.0037
 DoSCS=F DFT=T ScalE2(SS,OS)=  1.000000  1.000000
 Range of M.O.s used for correlation:     1    50
 NBasis=    50 NAE=     7 NBE=     7 NFC=     0 NFV=     0
 NROrb=     50 NOA=     7 NOB=     7 NVA=    43 NVB=    43

 **** Warning!!: The largest alpha MO coefficient is  0.11727933D+02

 Symmetrizing basis deriv contribution to polar:
 IMax=3 JMax=2 DiffMx= 0.00D+00
 Calling FoFJK, ICntrl=      2147 FMM=F ISym2X=0 I1Cent= 0 IOpClX= 0 NMat=1 NMatS=1 NMatT=0.
 -------------------------------------------------------------------
 Center     Atomic                   Forces (Hartrees/Bohr)
 Number     Number              X              Y              Z
 -------------------------------------------------------------------
      1        6           0.013916839    0.001813775    0.000000000
      2        1           0.006596390   -0.014580693    0.000000000
      3        7          -0.020513229    0.012766918    0.000000000
 -------------------------------------------------------------------
 Cartesian Forces:  Max     0.020513229 RMS     0.010733457
 IRC-IRC-IRC-IRC-IRC-IRC-IRC-IRC-IRC-IRC-IRC-IRC-IRC-IRC-IRC-IRC-IRC-IRC
 Pt 13 Step number   1 out of a maximum of  20
 Point Number:  13          Path Number:   1
   CHANGE IN THE REACTION COORDINATE =    0.16199
   NET REACTION COORDINATE UP TO THIS POINT =    2.10734
  # OF POINTS ALONG THE PATH =  13
  # OF STEPS =   1

 Calculating another point on the path.
 IRC-IRC-IRC-IRC-IRC-IRC-IRC-IRC-IRC-IRC-IRC-IRC-IRC-IRC-IRC-IRC-IRC-IRC
                          Input orientation:                          
 ---------------------------------------------------------------------
 Center     Atomic      Atomic             Coordinates (Angstroms)
 Number     Number       Type             X           Y           Z
 ---------------------------------------------------------------------
      1          6           0        0.124662    0.667065    0.000000
      2          1           0       -1.003865   -0.839663    0.000000
      3          7           0       -0.034580   -0.511212    0.000000
 ---------------------------------------------------------------------
                    Distance matrix (angstroms):
                    1          2          3
     1  C    0.000000
     2  H    1.882499   0.000000
     3  N    1.188989   1.023421   0.000000
 Symmetry turned off by external request.
 Stoichiometry    CHN
 Framework group  CS[SG(CHN)]
 Deg. of freedom     3
 Full point group                 CS      NOp   2
 Rotational constants (GHZ):    692.1893908     49.5540421     46.2434593
 Standard basis: 6-311+G(d,p) (5D, 7F)
    50 basis functions,    80 primitive gaussians,    52 cartesian basis functions
     7 alpha electrons        7 beta electrons
       nuclear repulsion energy        23.9988055227 Hartrees.
 NAtoms=    3 NActive=    3 NUniq=    3 SFac= 1.00D+00 NAtFMM=   60 NAOKFM=F Big=F
 Integral buffers will be    262144 words long.
 Raffenetti 2 integral format.
 Two-electron integral symmetry is turned off.
 One-electron integrals computed using PRISM.
 NBasis=    50 RedAO= T EigKep=  2.31D-03  NBF=    50
 NBsUse=    50 1.00D-06 EigRej= -1.00D+00 NBFU=    50
 Initial guess from the checkpoint file:  "C:\Users\Administrator\Desktop\IRC.chk"
 B after Tr=     0.001090   -0.004493    0.000000
         Rot=    0.999994    0.000000    0.000000   -0.003556 Ang=  -0.41 deg.
 ExpMin= 4.38D-02 ExpMax= 6.29D+03 ExpMxC= 9.49D+02 IAcc=2 IRadAn=         4 AccDes= 0.00D+00
 Harris functional with IExCor=  402 and IRadAn=       4 diagonalized for initial guess.
 HarFok:  IExCor=  402 AccDes= 0.00D+00 IRadAn=         4 IDoV= 1 UseB2=F ITyADJ=14
 ICtDFT=  3500011 ScaDFX=  1.000000  1.000000  1.000000  1.000000
 FoFCou: FMM=F IPFlag=           0 FMFlag=      100000 FMFlg1=           0
         NFxFlg=           0 DoJE=T BraDBF=F KetDBF=T FulRan=T
         wScrn=  0.000000 ICntrl=     500 IOpCl=  0 I1Cent=   200000004 NGrid=           0
         NMat0=    1 NMatS0=      1 NMatT0=    0 NMatD0=    1 NMtDS0=    0 NMtDT0=    0
 Symmetry not used in FoFCou.
 Keep R1 ints in memory in canonical form, NReq=1709481.
 Requested convergence on RMS density matrix=1.00D-08 within 128 cycles.
 Requested convergence on MAX density matrix=1.00D-06.
 Requested convergence on             energy=1.00D-06.
 No special actions if energy rises.
 SCF Done:  E(RB3LYP) =  -93.4157443244     A.U. after    9 cycles
            NFock=  9  Conv=0.88D-08     -V/T= 2.0038
 DoSCS=F DFT=T ScalE2(SS,OS)=  1.000000  1.000000
 Range of M.O.s used for correlation:     1    50
 NBasis=    50 NAE=     7 NBE=     7 NFC=     0 NFV=     0
 NROrb=     50 NOA=     7 NOB=     7 NVA=    43 NVB=    43

 **** Warning!!: The largest alpha MO coefficient is  0.11885706D+02

 Symmetrizing basis deriv contribution to polar:
 IMax=3 JMax=2 DiffMx= 0.00D+00
 Calling FoFJK, ICntrl=      2147 FMM=F ISym2X=0 I1Cent= 0 IOpClX= 0 NMat=1 NMatS=1 NMatT=0.
 -------------------------------------------------------------------
 Center     Atomic                   Forces (Hartrees/Bohr)
 Number     Number              X              Y              Z
 -------------------------------------------------------------------
      1        6           0.012979776    0.001049506    0.000000000
      2        1           0.007526358   -0.013052482    0.000000000
      3        7          -0.020506134    0.012002976    0.000000000
 -------------------------------------------------------------------
 Cartesian Forces:  Max     0.020506134 RMS     0.010334206
 IRC-IRC-IRC-IRC-IRC-IRC-IRC-IRC-IRC-IRC-IRC-IRC-IRC-IRC-IRC-IRC-IRC-IRC
 Pt 14 Step number   1 out of a maximum of  20
 Point Number:  14          Path Number:   1
   CHANGE IN THE REACTION COORDINATE =    0.16196
   NET REACTION COORDINATE UP TO THIS POINT =    2.26931
  # OF POINTS ALONG THE PATH =  14
  # OF STEPS =   1

 Calculating another point on the path.
 IRC-IRC-IRC-IRC-IRC-IRC-IRC-IRC-IRC-IRC-IRC-IRC-IRC-IRC-IRC-IRC-IRC-IRC
                          Input orientation:                          
 ---------------------------------------------------------------------
 Center     Atomic      Atomic             Coordinates (Angstroms)
 Number     Number       Type             X           Y           Z
 ---------------------------------------------------------------------
      1          6           0        0.130364    0.667661    0.000000
      2          1           0       -0.976816   -0.911832    0.000000
      3          7           0       -0.041413   -0.506529    0.000000
 ---------------------------------------------------------------------
                    Distance matrix (angstroms):
                    1          2          3
     1  C    0.000000
     2  H    1.928897   0.000000
     3  N    1.186689   1.019436   0.000000
 Symmetry turned off by external request.
 Stoichiometry    CHN
 Framework group  CS[SG(CHN)]
 Deg. of freedom     3
 Full point group                 CS      NOp   2
 Rotational constants (GHZ):    786.5917157     48.9371900     46.0709235
 Standard basis: 6-311+G(d,p) (5D, 7F)
    50 basis functions,    80 primitive gaussians,    52 cartesian basis functions
     7 alpha electrons        7 beta electrons
[...]
 ICtDFT=  3500011 ScaDFX=  1.000000  1.000000  1.000000  1.000000
 FoFCou: FMM=F IPFlag=           0 FMFlag=      100000 FMFlg1=           0
         NFxFlg=           0 DoJE=T BraDBF=F KetDBF=T FulRan=T
         wScrn=  0.000000 ICntrl=     500 IOpCl=  0 I1Cent=   200000004 NGrid=           0
         NMat0=    1 NMatS0=      1 NMatT0=    0 NMatD0=    1 NMtDS0=    0 NMtDT0=    0
 Symmetry not used in FoFCou.
 Keep R1 ints in memory in canonical form, NReq=1709481.
 Requested convergence on RMS density matrix=1.00D-08 within 128 cycles.
 Requested convergence on MAX density matrix=1.00D-06.
 Requested convergence on             energy=1.00D-06.
 No special actions if energy rises.
 SCF Done:  E(RB3LYP) =  -93.4527343718     A.U. after    8 cycles
            NFock=  8  Conv=0.85D-08     -V/T= 2.0040
 DoSCS=F DFT=T ScalE2(SS,OS)=  1.000000  1.000000
 Range of M.O.s used for correlation:     1    50
 NBasis=    50 NAE=     7 NBE=     7 NFC=     0 NFV=     0
 NROrb=     50 NOA=     7 NOB=     7 NVA=    43 NVB=    43
 Symmetrizing basis deriv contribution to polar:
 IMax=3 JMax=2 DiffMx= 0.00D+00
 Calling FoFJK, ICntrl=      2147 FMM=F ISym2X=0 I1Cent= 0 IOpClX= 0 NMat=1 NMatS=1 NMatT=0.
 -------------------------------------------------------------------
 Center     Atomic                   Forces (Hartrees/Bohr)
 Number     Number              X              Y              Z
 -------------------------------------------------------------------
      1        6          -0.014971070   -0.001652174    0.000000000
      2        1           0.008172186    0.000252927    0.000000000
      3        7           0.006798884    0.001399247    0.000000000
 -------------------------------------------------------------------
 Cartesian Forces:  Max     0.014971070 RMS     0.006163458
 IRC-IRC-IRC-IRC-IRC-IRC-IRC-IRC-IRC-IRC-IRC-IRC-IRC-IRC-IRC-IRC-IRC-IRC
 Pt 44 Step number   1 out of a maximum of  20
 Point Number:  19          Path Number:   2
   CHANGE IN THE REACTION COORDINATE =    0.16172
   NET REACTION COORDINATE UP TO THIS POINT =    3.07930
  # OF POINTS ALONG THE PATH =  44
  # OF STEPS =   1

 Calculating another point on the path.
 IRC-IRC-IRC-IRC-IRC-IRC-IRC-IRC-IRC-IRC-IRC-IRC-IRC-IRC-IRC-IRC-IRC-IRC
                          Input orientation:                          
 ---------------------------------------------------------------------
 Center     Atomic      Atomic             Coordinates (Angstroms)
 Number     Number       Type             X           Y           Z
 ---------------------------------------------------------------------
      1          6           0       -0.128060    0.541466    0.000000
      2          1           0       -0.524704    1.537589    0.000000
      3          7           0        0.147505   -0.574675    0.000000
 ---------------------------------------------------------------------
                    Distance matrix (angstroms):
                    1          2          3
     1  C    0.000000
     2  H    1.072189   0.000000
     3  N    1.149655   2.216647   0.000000
 Symmetry turned off by external request.
 Stoichiometry    CHN
 Framework group  CS[SG(CHN)]
 Deg. of freedom     3
 Full point group                 CS      NOp   2
 Rotational constants (GHZ):  32157.7730368     44.7687630     44.7065244
 Standard basis: 6-311+G(d,p) (5D, 7F)
    50 basis functions,    80 primitive gaussians,    52 cartesian basis functions
     7 alpha electrons        7 beta electrons
       nuclear repulsion energy        23.9646713980 Hartrees.
 NAtoms=    3 NActive=    3 NUniq=    3 SFac= 1.00D+00 NAtFMM=   60 NAOKFM=F Big=F
 Integral buffers will be    262144 words long.
 Raffenetti 2 integral format.
 Two-electron integral symmetry is turned off.
 One-electron integrals computed using PRISM.
 NBasis=    50 RedAO= T EigKep=  1.49D-03  NBF=    50
 NBsUse=    50 1.00D-06 EigRej= -1.00D+00 NBFU=    50
 Initial guess from the checkpoint file:  "C:\Users\Administrator\Desktop\IRC.chk"
 B after Tr=     0.003584    0.001741    0.000000
         Rot=    0.999992    0.000000    0.000000    0.004069 Ang=   0.47 deg.
 ExpMin= 4.38D-02 ExpMax= 6.29D+03 ExpMxC= 9.49D+02 IAcc=2 IRadAn=         4 AccDes= 0.00D+00
 Harris functional with IExCor=  402 and IRadAn=       4 diagonalized for initial guess.
 HarFok:  IExCor=  402 AccDes= 0.00D+00 IRadAn=         4 IDoV= 1 UseB2=F ITyADJ=14
 ICtDFT=  3500011 ScaDFX=  1.000000  1.000000  1.000000  1.000000
 FoFCou: FMM=F IPFlag=           0 FMFlag=      100000 FMFlg1=           0
         NFxFlg=           0 DoJE=T BraDBF=F KetDBF=T FulRan=T
         wScrn=  0.000000 ICntrl=     500 IOpCl=  0 I1Cent=   200000004 NGrid=           0
         NMat0=    1 NMatS0=      1 NMatT0=    0 NMatD0=    1 NMtDS0=    0 NMtDT0=    0
 Symmetry not used in FoFCou.
 Keep R1 ints in memory in canonical form, NReq=1709481.
 Requested convergence on RMS density matrix=1.00D-08 within 128 cycles.
 Requested convergence on MAX density matrix=1.00D-06.
 Requested convergence on             energy=1.00D-06.
 No special actions if energy rises.
 SCF Done:  E(RB3LYP) =  -93.4538553509     A.U. after    8 cycles
            NFock=  8  Conv=0.64D-08     -V/T= 2.0040
 DoSCS=F DFT=T ScalE2(SS,OS)=  1.000000  1.000000
 Range of M.O.s used for correlation:     1    50
 NBasis=    50 NAE=     7 NBE=     7 NFC=     0 NFV=     0
 NROrb=     50 NOA=     7 NOB=     7 NVA=    43 NVB=    43
 Symmetrizing basis deriv contribution to polar:
 IMax=3 JMax=2 DiffMx= 0.00D+00
 G2DrvN: will do     4 centers at a time, making    1 passes.
 Calling FoFCou, ICntrl=  3107 FMM=F I1Cent=   0 AccDes= 0.00D+00.
 End of G2Drv F.D. properties file   721 does not exist.
 End of G2Drv F.D. properties file   722 does not exist.
 End of G2Drv F.D. properties file   788 does not exist.
          IDoAtm=111
          Differentiating once with respect to nuclear coordinates.
 Keep R1 ints in memory in canonical form, NReq=1681693.
          There are    12 degrees of freedom in the 1st order CPHF.  IDoFFX=6 NUNeed=     0.
      6 vectors produced by pass  0 Test12= 2.51D-15 8.33D-09 XBig12= 1.37D-01 1.57D-01.
 AX will form     6 AO Fock derivatives at one time.
      6 vectors produced by pass  1 Test12= 2.51D-15 8.33D-09 XBig12= 1.45D-02 6.13D-02.
      6 vectors produced by pass  2 Test12= 2.51D-15 8.33D-09 XBig12= 8.09D-04 9.36D-03.
      6 vectors produced by pass  3 Test12= 2.51D-15 8.33D-09 XBig12= 8.67D-06 9.02D-04.
      6 vectors produced by pass  4 Test12= 2.51D-15 8.33D-09 XBig12= 2.11D-08 4.68D-05.
      6 vectors produced by pass  5 Test12= 2.51D-15 8.33D-09 XBig12= 3.47D-11 1.55D-06.
      4 vectors produced by pass  6 Test12= 2.51D-15 8.33D-09 XBig12= 7.65D-14 8.51D-08.
 InvSVY:  IOpt=1 It=  1 EMax= 4.44D-16
 Solved reduced A of dimension    40 with     6 vectors.
 End of Minotr F.D. properties file   721 does not exist.
 End of Minotr F.D. properties file   722 does not exist.
 End of Minotr F.D. properties file   788 does not exist.
 Calling FoFJK, ICntrl=    100147 FMM=F ISym2X=0 I1Cent= 0 IOpClX= 0 NMat=1 NMatS=1 NMatT=0.
 -------------------------------------------------------------------
 Center     Atomic                   Forces (Hartrees/Bohr)
 Number     Number              X              Y              Z
 -------------------------------------------------------------------
      1        6          -0.009446932    0.000433040    0.000000000
      2        1           0.005521734   -0.001842428    0.000000000
      3        7           0.003925198    0.001409389    0.000000000
 -------------------------------------------------------------------
 Cartesian Forces:  Max     0.009446932 RMS     0.003954037
 IRC-IRC-IRC-IRC-IRC-IRC-IRC-IRC-IRC-IRC-IRC-IRC-IRC-IRC-IRC-IRC-IRC-IRC
 Pt 45 Step number   1 out of a maximum of  20
 Point Number:  20          Path Number:   2
   CHANGE IN THE REACTION COORDINATE =    0.16140
   NET REACTION COORDINATE UP TO THIS POINT =    3.24069
  # OF POINTS ALONG THE PATH =  45
  # OF STEPS =   1

 Calculating another point on the path.
 IRC-IRC-IRC-IRC-IRC-IRC-IRC-IRC-IRC-IRC-IRC-IRC-IRC-IRC-IRC-IRC-IRC-IRC
                          Input orientation:                          
 ---------------------------------------------------------------------
 Center     Atomic      Atomic             Coordinates (Angstroms)
 Number     Number       Type             X           Y           Z
 ---------------------------------------------------------------------
      1          6           0       -0.139287    0.538121    0.000000
      2          1           0       -0.455889    1.559652    0.000000
      3          7           0        0.152174   -0.573396    0.000000
 ---------------------------------------------------------------------
                    Distance matrix (angstroms):
                    1          2          3
     1  C    0.000000
     2  H    1.069468   0.000000
     3  N    1.149095   2.218025   0.000000
 Symmetry turned off by external request.
 Stoichiometry    CHN
 Framework group  CS[SG(CHN)]
 Deg. of freedom     3
 Full point group                 CS      NOp   2
 Rotational constants (GHZ): 310263.4243684     44.7423247     44.7358735
 Standard basis: 6-311+G(d,p) (5D, 7F)
    50 basis functions,    80 primitive gaussians,    52 cartesian basis functions
     7 alpha electrons        7 beta electrons
       nuclear repulsion energy        23.9805776805 Hartrees.
 NAtoms=    3 NActive=    3 NUniq=    3 SFac= 1.00D+00 NAtFMM=   60 NAOKFM=F Big=F
 Integral buffers will be    262144 words long.
 Raffenetti 2 integral format.
 Two-electron integral symmetry is turned off.
 One-electron integrals computed using PRISM.
 NBasis=    50 RedAO= T EigKep=  1.39D-03  NBF=    50
 NBsUse=    50 1.00D-06 EigRej= -1.00D+00 NBFU=    50
 Initial guess from the checkpoint file:  "C:\Users\Administrator\Desktop\IRC.chk"
 B after Tr=     0.003768    0.001195    0.000000
         Rot=    0.999992    0.000000    0.000000    0.004065 Ang=   0.47 deg.
 ExpMin= 4.38D-02 ExpMax= 6.29D+03 ExpMxC= 9.49D+02 IAcc=2 IRadAn=         4 AccDes= 0.00D+00
 Harris functional with IExCor=  402 and IRadAn=       4 diagonalized for initial guess.
 HarFok:  IExCor=  402 AccDes= 0.00D+00 IRadAn=         4 IDoV= 1 UseB2=F ITyADJ=14
 ICtDFT=  3500011 ScaDFX=  1.000000  1.000000  1.000000  1.000000
 FoFCou: FMM=F IPFlag=           0 FMFlag=      100000 FMFlg1=           0
         NFxFlg=           0 DoJE=T BraDBF=F KetDBF=T FulRan=T
         wScrn=  0.000000 ICntrl=     500 IOpCl=  0 I1Cent=   200000004 NGrid=           0
         NMat0=    1 NMatS0=      1 NMatT0=    0 NMatD0=    1 NMtDS0=    0 NMtDT0=    0
 Symmetry not used in FoFCou.
 Keep R1 ints in memory in canonical form, NReq=1709481.
 Requested convergence on RMS density matrix=1.00D-08 within 128 cycles.
 Requested convergence on MAX density matrix=1.00D-06.
 Requested convergence on             energy=1.00D-06.
 No special actions if energy rises.
 SCF Done:  E(RB3LYP) =  -93.4544242485     A.U. after    8 cycles
            NFock=  8  Conv=0.94D-08     -V/T= 2.0040
 DoSCS=F DFT=T ScalE2(SS,OS)=  1.000000  1.000000
 Range of M.O.s used for correlation:     1    50
 NBasis=    50 NAE=     7 NBE=     7 NFC=     0 NFV=     0
 NROrb=     50 NOA=     7 NOB=     7 NVA=    43 NVB=    43
 Symmetrizing basis deriv contribution to polar:
 IMax=3 JMax=2 DiffMx= 0.00D+00
 Calling FoFJK, ICntrl=      2147 FMM=F ISym2X=0 I1Cent= 0 IOpClX= 0 NMat=1 NMatS=1 NMatT=0.
 -------------------------------------------------------------------
 Center     Atomic                   Forces (Hartrees/Bohr)
 Number     Number              X              Y              Z
 -------------------------------------------------------------------
      1        6          -0.003313560    0.001320030    0.000000000
      2        1           0.001956627   -0.001439685    0.000000000
      3        7           0.001356933    0.000119655    0.000000000
 -------------------------------------------------------------------
 Cartesian Forces:  Max     0.003313560 RMS     0.001508451
 IRC-IRC-IRC-IRC-IRC-IRC-IRC-IRC-IRC-IRC-IRC-IRC-IRC-IRC-IRC-IRC-IRC-IRC
 Pt 46 Step number   1 out of a maximum of  20
 Point Number:  21          Path Number:   2
   CHANGE IN THE REACTION COORDINATE =    0.16077
   NET REACTION COORDINATE UP TO THIS POINT =    3.40147
  # OF POINTS ALONG THE PATH =  46
  # OF STEPS =   1

 Calculating another point on the path.
 PES minimum detected within a second-order step.
 Calculation of REVERSE path complete.
 Reaction path calculation complete.
 
 Energies reported relative to the TS energy of         -93.378009
 --------------------------------------------------------------------------
    Summary of reaction path following
 --------------------------------------------------------------------------
                        Energy    RxCoord
   1                   -0.07642  -3.40147
   2                   -0.07585  -3.24069
   3                   -0.07473  -3.07930
   4                   -0.07304  -2.91757
   5                   -0.07081  -2.75568
   6                   -0.06804  -2.59370
   7                   -0.06475  -2.43166
   8                   -0.06098  -2.26959
   9                   -0.05675  -2.10750
  10                   -0.05211  -1.94540
  11                   -0.04710  -1.78327
  12                   -0.04177  -1.62114
  13                   -0.03623  -1.45902
  14                   -0.03057  -1.29689
  15                   -0.02491  -1.13477
  16                   -0.01939  -0.97264
  17                   -0.01419  -0.81053
  18                   -0.00950  -0.64841
  19                   -0.00554  -0.48631
  20                   -0.00252  -0.32424
  21                   -0.00064  -0.16216
  22                    0.00000   0.00000
  23                   -0.00061   0.16216
  24                   -0.00231   0.32426
  25                   -0.00479   0.48637
  26                   -0.00767   0.64849
  27                   -0.01068   0.81057
  28                   -0.01371   0.97265
  29                   -0.01675   1.13476
  30                   -0.01982   1.29689
  31                   -0.02292   1.45901
  32                   -0.02602   1.62113
  33                   -0.02910   1.78325
  34                   -0.03210   1.94535
  35                   -0.03499   2.10734
  36                   -0.03774   2.26931
  37                   -0.04030   2.43122
  38                   -0.04267   2.59308
  39                   -0.04481   2.75486
  40                   -0.04671   2.91653
  41                   -0.04838   3.07807
  42                   -0.04981   3.23941
  43                   -0.05102   3.40075
  44                   -0.05196   3.56242
  45                   -0.05268   3.72211
  46                   -0.05318   3.88105
  47                   -0.05345   4.03862
 --------------------------------------------------------------------------
 
 Total number of points:                   46
 Total number of gradient calculations:    47
 Total number of Hessian calculations:      5
 IRC-IRC-IRC-IRC-IRC-IRC-IRC-IRC-IRC-IRC-IRC-IRC-IRC-IRC-IRC-IRC-IRC-IRC
                          Input orientation:                          
 ---------------------------------------------------------------------
 Center     Atomic      Atomic             Coordinates (Angstroms)
 Number     Number       Type             X           Y           Z
 ---------------------------------------------------------------------
      1          6           0       -0.139287    0.538121    0.000000
      2          1           0       -0.455889    1.559652    0.000000
      3          7           0        0.152174   -0.573396    0.000000
 ---------------------------------------------------------------------
                    Distance matrix (angstroms):
                    1          2          3
     1  C    0.000000
     2  H    1.069468   0.000000
     3  N    1.149095   2.218025   0.000000
 Symmetry turned off by external request.
 Stoichiometry    CHN
 Framework group  CS[SG(CHN)]
 Deg. of freedom     3
 Full point group                 CS      NOp   2
 Rotational constants (GHZ): 310263.4243684     44.7423247     44.7358735

 **********************************************************************

            Population analysis using the SCF density.

 **********************************************************************

 Alpha  occ. eigenvalues --  -14.34503 -10.23196  -0.93650  -0.61642  -0.39414
 Alpha  occ. eigenvalues --   -0.37486  -0.37483
 Alpha virt. eigenvalues --   -0.00947  -0.00897   0.00864   0.02733   0.06834
 Alpha virt. eigenvalues --    0.06840   0.11049   0.17292   0.17886   0.17888
 Alpha virt. eigenvalues --    0.23573   0.37802   0.51699   0.51749   0.56273
 Alpha virt. eigenvalues --    0.74683   0.76963   0.83507   0.83559   1.00311
 Alpha virt. eigenvalues --    1.14961   1.14987   1.24166   1.24428   1.24476
 Alpha virt. eigenvalues --    1.78323   1.78635   1.91700   2.05798   2.05798
 Alpha virt. eigenvalues --    2.46928   2.60389   2.60398   2.84485   2.86525
 Alpha virt. eigenvalues --    2.87334   3.05985   3.37829   3.91541   3.91691
 Alpha virt. eigenvalues --    4.54900  24.30789  35.76432
          Condensed to atoms (all electrons):
               1          2          3
     1  C    4.991419   0.391024   0.577775
     2  H    0.391024   0.433945  -0.021580
     3  N    0.577775  -0.021580   6.680200
 Mulliken charges:
               1
     1  C    0.039783
     2  H    0.196611
     3  N   -0.236394
 Sum of Mulliken charges =   0.00000
 Mulliken charges with hydrogens summed into heavy atoms:
               1
     1  C    0.236394
     3  N   -0.236394
 APT charges:
               1
     1  C   -0.062441
     2  H    0.453490
     3  N   -0.391048
 Sum of APT charges =   0.00000
 APT charges with hydrogens summed into heavy atoms:
               1
     1  C    0.391048
     3  N   -0.391048
 Electronic spatial extent (au):  <R**2>=             49.5900
 Charge=              0.0000 electrons
 Dipole moment (field-independent basis, Debye):
    X=             -0.8351    Y=              2.9425    Z=              0.0000  Tot=              3.0587
 Quadrupole moment (field-independent basis, Debye-Ang):
   XX=            -11.6521   YY=             -9.7861   ZZ=            -11.8424
   XY=             -0.6259   XZ=              0.0000   YZ=              0.0000
 Traceless Quadrupole moment (field-independent basis, Debye-Ang):
   XX=             -0.5586   YY=              1.3075   ZZ=             -0.7489
   XY=             -0.6259   XZ=              0.0000   YZ=              0.0000
 Octapole moment (field-independent basis, Debye-Ang**2):
  XXX=              0.1172  YYY=              5.3056  ZZZ=              0.0000  XYY=             -1.7666
  XXY=              0.1777  XXZ=              0.0000  XZZ=              0.0915  YZZ=             -0.3626
  YYZ=              0.0000  XYZ=              0.0000
 Hexadecapole moment (field-independent basis, Debye-Ang**3):
 XXXX=            -14.5106 YYYY=            -34.4492 ZZZZ=            -12.3935 XXXY=              3.8092
 XXXZ=              0.0000 YYYX=              1.7117 YYYZ=              0.0000 ZZZX=              0.0000
 ZZZY=              0.0000 XXYY=             -8.7492 XXZZ=             -4.4945 YYZZ=             -9.0807
 XXYZ=              0.0000 YYXZ=              0.0000 ZZXY=              1.3394
 N-N= 2.398057768053D+01 E-N=-2.660632130226D+02  KE= 9.308451854887D+01
  Exact polarizability:   0.000   0.000   0.000   0.000   0.000   0.000
 Approx polarizability:  14.596  -6.681  38.855   0.000   0.000  12.868

 This type of calculation cannot be archived.


 A HARD FALL SHOULD MEAN A HIGH BOUNCE 
 IF ONE IS MADE OF THE RIGHT MATERIAL.

                -- THE CHEMIST ANALYST, MARCH 1950
 Job cpu time:       0 days  0 hours 18 minutes 50.0 seconds.
 File lengths (MBytes):  RWF=      5 Int=      0 D2E=      0 Chk=      1 Scr=      1
 Normal termination of Gaussian 09 at Sun Jul 26 22:53:58 2020.
